<?xml version="1.0" encoding="UTF-8"?>

<!-- generated on 2023-01-30 12:06:27 by Eclipse SUMO sumo Version 1.13.0
<configuration xmlns:xsi="http://www.w3.org/2001/XMLSchema-instance" xsi:noNamespaceSchemaLocation="http://sumo.dlr.de/xsd/sumoConfiguration.xsd">

    <input>
        <net-file value="data/Eastway-Central.net.xml"/>
        <route-files value="data/cav80-offpeak.rou.xml"/>
        <additional-files value="data/Eastway-Central.add.xml"/>
    </input>

    <output>
        <tripinfo-output value="result\2023-01-30-12-04-30\13_tripinfo.xml"/>
    </output>

    <report>
        <no-warnings value="true"/>
        <no-step-log value="true"/>
    </report>

    <traci_server>
        <remote-port value="54046"/>
    </traci_server>

    <random_number>
        <seed value="12"/>
    </random_number>

</configuration>
-->

<tripinfos xmlns:xsi="http://www.w3.org/2001/XMLSchema-instance" xsi:noNamespaceSchemaLocation="http://sumo.dlr.de/xsd/tripinfo_file.xsd">
    <tripinfo id="BNS.0" depart="0.00" departLane="E1_1" departPos="12.10" departSpeed="20.12" departDelay="0.00" arrival="50.00" arrivalLane="E3_0" arrivalPos="501.31" arrivalSpeed="20.12" duration="50.00" routeLength="987.98" waitingTime="0.00" waitingCount="0" stopTime="0.00" timeLoss="0.19" rerouteNo="0" devices="tripinfo_BNS.0 routing_BNS.0" vType="bus" speedFactor="1.00" vaporized=""/>
    <tripinfo id="SN.cv.0" depart="0.00" departLane="-E3_1" departPos="5.10" departSpeed="19.68" departDelay="0.00" arrival="51.00" arrivalLane="-E1_0" arrivalPos="498.92" arrivalSpeed="19.68" duration="51.00" routeLength="995.07" waitingTime="0.00" waitingCount="0" stopTime="0.00" timeLoss="0.09" rerouteNo="0" devices="tripinfo_SN.cv.0 routing_SN.cv.0" vType="cv" speedFactor="0.98" vaporized=""/>
    <tripinfo id="NS.0" depart="4.00" departLane="E1_2" departPos="5.10" departSpeed="18.17" departDelay="0.00" arrival="59.00" arrivalLane="E3_0" arrivalPos="501.31" arrivalSpeed="18.17" duration="55.00" routeLength="994.98" waitingTime="0.00" waitingCount="0" stopTime="0.00" timeLoss="0.03" rerouteNo="0" devices="tripinfo_NS.0 routing_NS.0" vType="car" speedFactor="0.90" vaporized=""/>
    <tripinfo id="NS.cv.0" depart="4.00" departLane="E1_1" departPos="5.10" departSpeed="17.73" departDelay="0.00" arrival="61.00" arrivalLane="E3_0" arrivalPos="501.31" arrivalSpeed="17.28" duration="57.00" routeLength="994.98" waitingTime="0.00" waitingCount="0" stopTime="0.00" timeLoss="0.70" rerouteNo="0" devices="tripinfo_NS.cv.0 routing_NS.cv.0" vType="cv" speedFactor="0.88" vaporized=""/>
    <tripinfo id="NS.cv.1" depart="8.00" departLane="E1_2" departPos="5.10" departSpeed="20.35" departDelay="0.00" arrival="61.00" arrivalLane="E3_1" arrivalPos="501.31" arrivalSpeed="20.29" duration="53.00" routeLength="994.98" waitingTime="0.00" waitingCount="0" stopTime="0.00" timeLoss="3.53" rerouteNo="0" devices="tripinfo_NS.cv.1 routing_NS.cv.1" vType="cv" speedFactor="1.01" vaporized=""/>
    <tripinfo id="SN.cv.1" depart="9.00" departLane="-E3_2" departPos="5.10" departSpeed="17.66" departDelay="0.00" arrival="66.00" arrivalLane="-E1_0" arrivalPos="498.92" arrivalSpeed="17.66" duration="57.00" routeLength="995.07" waitingTime="0.00" waitingCount="0" stopTime="0.00" timeLoss="0.04" rerouteNo="0" devices="tripinfo_SN.cv.1 routing_SN.cv.1" vType="cv" speedFactor="0.88" vaporized=""/>
    <tripinfo id="ES.cv.0" depart="0.00" departLane="-E2_2" departPos="5.10" departSpeed="16.23" departDelay="0.00" arrival="70.00" arrivalLane="E3_0" arrivalPos="501.31" arrivalSpeed="20.65" duration="70.00" routeLength="1002.88" waitingTime="2.00" waitingCount="1" stopTime="0.00" timeLoss="14.56" rerouteNo="0" devices="tripinfo_ES.cv.0 routing_ES.cv.0" vType="cv" speedFactor="1.04" vaporized=""/>
    <tripinfo id="ES.cv.1" depart="2.00" departLane="-E2_3" departPos="5.10" departSpeed="16.07" departDelay="0.00" arrival="70.00" arrivalLane="E3_1" arrivalPos="501.31" arrivalSpeed="20.65" duration="68.00" routeLength="1002.88" waitingTime="0.00" waitingCount="0" stopTime="0.00" timeLoss="11.81" rerouteNo="0" devices="tripinfo_ES.cv.1 routing_ES.cv.1" vType="cv" speedFactor="1.03" vaporized=""/>
    <tripinfo id="EW.1" depart="11.00" departLane="-E2_0" departPos="5.10" departSpeed="18.03" departDelay="0.00" arrival="71.00" arrivalLane="-E0_0" arrivalPos="500.03" arrivalSpeed="18.03" duration="60.00" routeLength="1001.60" waitingTime="0.00" waitingCount="0" stopTime="0.00" timeLoss="4.26" rerouteNo="0" devices="tripinfo_EW.1 routing_EW.1" vType="car" speedFactor="1.15" vaporized=""/>
    <tripinfo id="ES.cv.2" depart="4.00" departLane="-E2_2" departPos="5.10" departSpeed="15.72" departDelay="0.00" arrival="73.00" arrivalLane="E3_0" arrivalPos="501.31" arrivalSpeed="20.09" duration="69.00" routeLength="1002.88" waitingTime="0.00" waitingCount="0" stopTime="0.00" timeLoss="11.97" rerouteNo="0" devices="tripinfo_ES.cv.2 routing_ES.cv.2" vType="cv" speedFactor="1.00" vaporized=""/>
    <tripinfo id="EW.cv.0" depart="9.00" departLane="-E2_1" departPos="5.10" departSpeed="15.40" departDelay="0.00" arrival="78.00" arrivalLane="-E0_1" arrivalPos="500.03" arrivalSpeed="15.40" duration="69.00" routeLength="1001.60" waitingTime="0.00" waitingCount="0" stopTime="0.00" timeLoss="3.57" rerouteNo="0" devices="tripinfo_EW.cv.0 routing_EW.cv.0" vType="cv" speedFactor="0.98" vaporized=""/>
    <tripinfo id="EW.0" depart="0.00" departLane="-E2_0" departPos="5.10" departSpeed="13.80" departDelay="0.00" arrival="80.00" arrivalLane="-E0_0" arrivalPos="500.03" arrivalSpeed="13.80" duration="80.00" routeLength="1001.60" waitingTime="0.00" waitingCount="0" stopTime="0.00" timeLoss="6.99" rerouteNo="0" devices="tripinfo_EW.0 routing_EW.0" vType="car" speedFactor="0.88" vaporized=""/>
    <tripinfo id="WE.cv.0" depart="3.00" departLane="E0_0" departPos="5.10" departSpeed="16.56" departDelay="0.00" arrival="86.00" arrivalLane="E2_0" arrivalPos="508.36" arrivalSpeed="16.56" duration="83.00" routeLength="1002.59" waitingTime="11.00" waitingCount="1" stopTime="0.00" timeLoss="22.28" rerouteNo="0" devices="tripinfo_WE.cv.0 routing_WE.cv.0" vType="cv" speedFactor="1.06" vaporized=""/>
    <tripinfo id="WS.cv.0" depart="12.00" departLane="E0_0" departPos="5.10" departSpeed="14.01" departDelay="0.00" arrival="86.00" arrivalLane="E3_0" arrivalPos="501.31" arrivalSpeed="18.01" duration="74.00" routeLength="995.54" waitingTime="0.00" waitingCount="0" stopTime="0.00" timeLoss="10.42" rerouteNo="0" devices="tripinfo_WS.cv.0 routing_WS.cv.0" vType="cv" speedFactor="0.90" vaporized=""/>
    <tripinfo id="WS.0" depart="28.00" departLane="E0_0" departPos="5.10" departSpeed="17.66" departDelay="0.00" arrival="86.00" arrivalLane="E3_1" arrivalPos="501.31" arrivalSpeed="22.70" duration="58.00" routeLength="995.54" waitingTime="0.00" waitingCount="0" stopTime="0.00" timeLoss="7.72" rerouteNo="0" devices="tripinfo_WS.0 routing_WS.0" vType="car" speedFactor="1.13" vaporized=""/>
    <tripinfo id="WE.cv.1" depart="14.00" departLane="E0_1" departPos="5.10" departSpeed="15.43" departDelay="0.00" arrival="89.00" arrivalLane="E2_0" arrivalPos="508.36" arrivalSpeed="15.32" duration="75.00" routeLength="1002.59" waitingTime="0.00" waitingCount="0" stopTime="0.00" timeLoss="9.17" rerouteNo="0" devices="tripinfo_WE.cv.1 routing_WE.cv.1" vType="cv" speedFactor="0.99" vaporized=""/>
    <tripinfo id="EW.cv.1" depart="26.00" departLane="-E2_0" departPos="5.10" departSpeed="16.15" departDelay="0.00" arrival="89.00" arrivalLane="-E0_0" arrivalPos="500.03" arrivalSpeed="16.15" duration="63.00" routeLength="1001.60" waitingTime="0.00" waitingCount="0" stopTime="0.00" timeLoss="0.30" rerouteNo="0" devices="tripinfo_EW.cv.1 routing_EW.cv.1" vType="cv" speedFactor="1.03" vaporized=""/>
    <tripinfo id="SN.cv.2" depart="14.00" departLane="-E3_1" departPos="5.10" departSpeed="24.28" departDelay="0.00" arrival="95.00" arrivalLane="-E1_0" arrivalPos="498.92" arrivalSpeed="24.28" duration="81.00" routeLength="995.07" waitingTime="21.00" waitingCount="1" stopTime="0.00" timeLoss="39.36" rerouteNo="0" devices="tripinfo_SN.cv.2 routing_SN.cv.2" vType="cv" speedFactor="1.21" vaporized=""/>
    <tripinfo id="SN.cv.3" depart="21.00" departLane="-E3_1" departPos="5.10" departSpeed="22.42" departDelay="0.00" arrival="96.00" arrivalLane="-E1_0" arrivalPos="498.92" arrivalSpeed="21.43" duration="75.00" routeLength="995.07" waitingTime="17.00" waitingCount="1" stopTime="0.00" timeLoss="30.51" rerouteNo="0" devices="tripinfo_SN.cv.3 routing_SN.cv.3" vType="cv" speedFactor="1.11" vaporized=""/>
    <tripinfo id="SN.cv.5" depart="23.00" departLane="-E3_1" departPos="5.10" departSpeed="21.15" departDelay="0.00" arrival="100.00" arrivalLane="-E1_0" arrivalPos="498.92" arrivalSpeed="21.08" duration="77.00" routeLength="995.07" waitingTime="13.00" waitingCount="1" stopTime="0.00" timeLoss="29.38" rerouteNo="0" devices="tripinfo_SN.cv.5 routing_SN.cv.5" vType="cv" speedFactor="1.05" vaporized=""/>
    <tripinfo id="SN.cv.4" depart="22.00" departLane="-E3_2" departPos="5.10" departSpeed="19.23" departDelay="0.00" arrival="102.00" arrivalLane="-E1_0" arrivalPos="498.92" arrivalSpeed="18.80" duration="80.00" routeLength="995.07" waitingTime="14.00" waitingCount="1" stopTime="0.00" timeLoss="27.57" rerouteNo="0" devices="tripinfo_SN.cv.4 routing_SN.cv.4" vType="cv" speedFactor="0.96" vaporized=""/>
    <tripinfo id="SW.cv.0" depart="6.00" departLane="-E3_3" departPos="5.10" departSpeed="21.50" departDelay="0.00" arrival="103.00" arrivalLane="-E0_0" arrivalPos="500.03" arrivalSpeed="16.72" duration="97.00" routeLength="996.18" waitingTime="31.00" waitingCount="1" stopTime="0.00" timeLoss="43.09" rerouteNo="0" devices="tripinfo_SW.cv.0 routing_SW.cv.0" vType="cv" speedFactor="1.07" vaporized=""/>
    <tripinfo id="SN.cv.6" depart="44.00" departLane="-E3_2" departPos="5.10" departSpeed="20.06" departDelay="0.00" arrival="104.00" arrivalLane="-E1_0" arrivalPos="498.92" arrivalSpeed="19.43" duration="60.00" routeLength="995.07" waitingTime="0.00" waitingCount="0" stopTime="0.00" timeLoss="9.91" rerouteNo="0" devices="tripinfo_SN.cv.6 routing_SN.cv.6" vType="cv" speedFactor="1.00" vaporized=""/>
    <tripinfo id="SN.cv.7" depart="46.00" departLane="-E3_1" departPos="5.10" departSpeed="19.77" departDelay="0.00" arrival="106.00" arrivalLane="-E1_0" arrivalPos="498.92" arrivalSpeed="19.27" duration="60.00" routeLength="995.07" waitingTime="0.00" waitingCount="0" stopTime="0.00" timeLoss="9.52" rerouteNo="0" devices="tripinfo_SN.cv.7 routing_SN.cv.7" vType="cv" speedFactor="0.98" vaporized=""/>
    <tripinfo id="SW.cv.1" depart="12.00" departLane="-E3_3" departPos="5.10" departSpeed="19.35" departDelay="0.00" arrival="108.00" arrivalLane="-E0_0" arrivalPos="500.03" arrivalSpeed="15.05" duration="96.00" routeLength="996.18" waitingTime="25.00" waitingCount="1" stopTime="0.00" timeLoss="36.86" rerouteNo="0" devices="tripinfo_SW.cv.1 routing_SW.cv.1" vType="cv" speedFactor="0.96" vaporized=""/>
    <tripinfo id="NS.cv.2" depart="26.00" departLane="E1_2" departPos="5.10" departSpeed="19.94" departDelay="0.00" arrival="111.00" arrivalLane="E3_1" arrivalPos="501.31" arrivalSpeed="19.94" duration="85.00" routeLength="994.98" waitingTime="22.00" waitingCount="1" stopTime="0.00" timeLoss="35.10" rerouteNo="0" devices="tripinfo_NS.cv.2 routing_NS.cv.2" vType="cv" speedFactor="0.99" vaporized=""/>
    <tripinfo id="NS.1" depart="24.00" departLane="E1_1" departPos="5.10" departSpeed="19.33" departDelay="0.00" arrival="112.00" arrivalLane="E3_0" arrivalPos="501.31" arrivalSpeed="19.33" duration="88.00" routeLength="994.98" waitingTime="24.00" waitingCount="1" stopTime="0.00" timeLoss="36.19" rerouteNo="0" devices="tripinfo_NS.1 routing_NS.1" vType="car" speedFactor="0.96" vaporized=""/>
    <tripinfo id="SW.cv.2" depart="38.00" departLane="-E3_3" departPos="5.10" departSpeed="18.55" departDelay="0.00" arrival="112.00" arrivalLane="-E0_1" arrivalPos="500.03" arrivalSpeed="14.43" duration="74.00" routeLength="996.18" waitingTime="0.00" waitingCount="0" stopTime="0.00" timeLoss="12.18" rerouteNo="0" devices="tripinfo_SW.cv.2 routing_SW.cv.2" vType="cv" speedFactor="0.92" vaporized=""/>
    <tripinfo id="NS.cv.3" depart="32.00" departLane="E1_2" departPos="5.10" departSpeed="19.20" departDelay="0.00" arrival="115.00" arrivalLane="E3_1" arrivalPos="501.31" arrivalSpeed="19.16" duration="83.00" routeLength="994.98" waitingTime="18.00" waitingCount="1" stopTime="0.00" timeLoss="30.89" rerouteNo="0" devices="tripinfo_NS.cv.3 routing_NS.cv.3" vType="cv" speedFactor="0.95" vaporized=""/>
    <tripinfo id="NS.2" depart="31.00" departLane="E1_1" departPos="5.10" departSpeed="18.14" departDelay="0.00" arrival="116.00" arrivalLane="E3_0" arrivalPos="501.31" arrivalSpeed="18.12" duration="85.00" routeLength="994.98" waitingTime="17.00" waitingCount="1" stopTime="0.00" timeLoss="30.06" rerouteNo="0" devices="tripinfo_NS.2 routing_NS.2" vType="car" speedFactor="0.90" vaporized=""/>
    <tripinfo id="NS.cv.4" depart="51.00" departLane="E1_2" departPos="5.10" departSpeed="19.38" departDelay="0.00" arrival="118.00" arrivalLane="E3_1" arrivalPos="501.31" arrivalSpeed="19.20" duration="67.00" routeLength="994.98" waitingTime="0.00" waitingCount="0" stopTime="0.00" timeLoss="15.08" rerouteNo="0" devices="tripinfo_NS.cv.4 routing_NS.cv.4" vType="cv" speedFactor="0.96" vaporized=""/>
    <tripinfo id="SN.cv.8" depart="65.00" departLane="-E3_1" departPos="5.10" departSpeed="19.61" departDelay="0.00" arrival="118.00" arrivalLane="-E1_1" arrivalPos="498.92" arrivalSpeed="19.61" duration="53.00" routeLength="995.07" waitingTime="0.00" waitingCount="0" stopTime="0.00" timeLoss="1.96" rerouteNo="0" devices="tripinfo_SN.cv.8 routing_SN.cv.8" vType="cv" speedFactor="0.97" vaporized=""/>
    <tripinfo id="NS.cv.5" depart="61.00" departLane="E1_1" departPos="5.10" departSpeed="21.75" departDelay="0.00" arrival="120.00" arrivalLane="E3_1" arrivalPos="501.31" arrivalSpeed="20.43" duration="59.00" routeLength="994.98" waitingTime="0.00" waitingCount="0" stopTime="0.00" timeLoss="12.55" rerouteNo="0" devices="tripinfo_NS.cv.5 routing_NS.cv.5" vType="cv" speedFactor="1.08" vaporized=""/>
    <tripinfo id="NS.cv.6" depart="67.00" departLane="E1_1" departPos="5.10" departSpeed="20.56" departDelay="0.00" arrival="122.00" arrivalLane="E3_0" arrivalPos="501.31" arrivalSpeed="20.12" duration="55.00" routeLength="994.98" waitingTime="0.00" waitingCount="0" stopTime="0.00" timeLoss="5.73" rerouteNo="0" devices="tripinfo_NS.cv.6 routing_NS.cv.6" vType="cv" speedFactor="1.02" vaporized=""/>
    <tripinfo id="NS.3" depart="71.00" departLane="E1_1" departPos="5.10" departSpeed="22.51" departDelay="0.00" arrival="122.00" arrivalLane="E3_1" arrivalPos="501.31" arrivalSpeed="21.77" duration="51.00" routeLength="994.98" waitingTime="0.00" waitingCount="0" stopTime="0.00" timeLoss="6.74" rerouteNo="0" devices="tripinfo_NS.3 routing_NS.3" vType="car" speedFactor="1.12" vaporized=""/>
    <tripinfo id="NW.0" depart="57.00" departLane="E1_0" departPos="5.10" departSpeed="18.75" departDelay="0.00" arrival="124.00" arrivalLane="-E0_0" arrivalPos="500.03" arrivalSpeed="14.58" duration="67.00" routeLength="993.70" waitingTime="0.00" waitingCount="0" stopTime="0.00" timeLoss="5.54" rerouteNo="0" devices="tripinfo_NW.0 routing_NW.0" vType="car" speedFactor="0.93" vaporized=""/>
    <tripinfo id="NW.1" depart="59.00" departLane="E1_0" departPos="5.10" departSpeed="20.34" departDelay="0.00" arrival="124.00" arrivalLane="-E0_1" arrivalPos="500.03" arrivalSpeed="15.82" duration="65.00" routeLength="993.70" waitingTime="0.00" waitingCount="0" stopTime="0.00" timeLoss="8.85" rerouteNo="0" devices="tripinfo_NW.1 routing_NW.1" vType="car" speedFactor="1.01" vaporized=""/>
    <tripinfo id="NS.cv.7" depart="68.00" departLane="E1_2" departPos="5.10" departSpeed="19.32" departDelay="0.00" arrival="124.00" arrivalLane="E3_0" arrivalPos="501.31" arrivalSpeed="18.87" duration="56.00" routeLength="994.98" waitingTime="0.00" waitingCount="0" stopTime="0.00" timeLoss="3.84" rerouteNo="0" devices="tripinfo_NS.cv.7 routing_NS.cv.7" vType="cv" speedFactor="0.96" vaporized=""/>
    <tripinfo id="ES.cv.4" depart="52.00" departLane="-E2_3" departPos="5.10" departSpeed="16.55" departDelay="0.00" arrival="131.00" arrivalLane="E3_0" arrivalPos="501.31" arrivalSpeed="21.28" duration="79.00" routeLength="1002.88" waitingTime="13.00" waitingCount="1" stopTime="0.00" timeLoss="24.98" rerouteNo="0" devices="tripinfo_ES.cv.4 routing_ES.cv.4" vType="cv" speedFactor="1.06" vaporized=""/>
    <tripinfo id="WN.0" depart="7.00" departLane="E0_2" departPos="5.10" departSpeed="15.76" departDelay="0.00" arrival="132.00" arrivalLane="-E1_1" arrivalPos="498.92" arrivalSpeed="20.26" duration="125.00" routeLength="993.15" waitingTime="57.00" waitingCount="1" stopTime="0.00" timeLoss="68.59" rerouteNo="0" devices="tripinfo_WN.0 routing_WN.0" vType="car" speedFactor="1.01" vaporized=""/>
    <tripinfo id="ES.cv.5" depart="55.00" departLane="-E2_2" departPos="5.10" departSpeed="16.94" departDelay="0.00" arrival="133.00" arrivalLane="E3_1" arrivalPos="501.31" arrivalSpeed="21.78" duration="78.00" routeLength="1002.88" waitingTime="11.00" waitingCount="1" stopTime="0.00" timeLoss="25.20" rerouteNo="0" devices="tripinfo_ES.cv.5 routing_ES.cv.5" vType="cv" speedFactor="1.08" vaporized=""/>
    <tripinfo id="ES.cv.3" depart="48.00" departLane="-E2_2" departPos="5.10" departSpeed="13.78" departDelay="0.00" arrival="136.00" arrivalLane="E3_0" arrivalPos="501.31" arrivalSpeed="17.72" duration="88.00" routeLength="1002.88" waitingTime="11.00" waitingCount="1" stopTime="0.00" timeLoss="22.46" rerouteNo="0" devices="tripinfo_ES.cv.3 routing_ES.cv.3" vType="cv" speedFactor="0.88" vaporized=""/>
    <tripinfo id="WN.cv.0" depart="56.00" departLane="E0_3" departPos="5.10" departSpeed="13.39" departDelay="0.00" arrival="136.00" arrivalLane="-E1_0" arrivalPos="498.92" arrivalSpeed="17.21" duration="80.00" routeLength="993.15" waitingTime="3.00" waitingCount="1" stopTime="0.00" timeLoss="13.77" rerouteNo="0" devices="tripinfo_WN.cv.0 routing_WN.cv.0" vType="cv" speedFactor="0.86" vaporized=""/>
    <tripinfo id="WN.cv.2" depart="76.00" departLane="E0_2" departPos="5.10" departSpeed="17.18" departDelay="0.00" arrival="136.00" arrivalLane="-E1_1" arrivalPos="498.92" arrivalSpeed="21.95" duration="60.00" routeLength="993.15" waitingTime="0.00" waitingCount="0" stopTime="0.00" timeLoss="8.07" rerouteNo="0" devices="tripinfo_WN.cv.2 routing_WN.cv.2" vType="cv" speedFactor="1.10" vaporized=""/>
    <tripinfo id="ES.cv.7" depart="66.00" departLane="-E2_3" departPos="5.10" departSpeed="15.46" departDelay="0.00" arrival="137.00" arrivalLane="E3_1" arrivalPos="501.31" arrivalSpeed="19.85" duration="71.00" routeLength="1002.88" waitingTime="0.00" waitingCount="0" stopTime="0.00" timeLoss="13.25" rerouteNo="0" devices="tripinfo_ES.cv.7 routing_ES.cv.7" vType="cv" speedFactor="0.99" vaporized=""/>
    <tripinfo id="WN.cv.1" depart="73.00" departLane="E0_3" departPos="5.10" departSpeed="15.51" departDelay="0.00" arrival="138.00" arrivalLane="-E1_0" arrivalPos="498.92" arrivalSpeed="18.76" duration="65.00" routeLength="993.15" waitingTime="0.00" waitingCount="0" stopTime="0.00" timeLoss="7.61" rerouteNo="0" devices="tripinfo_WN.cv.1 routing_WN.cv.1" vType="cv" speedFactor="0.99" vaporized=""/>
    <tripinfo id="ES.cv.6" depart="59.00" departLane="-E2_3" departPos="5.10" departSpeed="13.12" departDelay="0.00" arrival="140.00" arrivalLane="E3_0" arrivalPos="501.31" arrivalSpeed="16.85" duration="81.00" routeLength="1002.88" waitingTime="0.00" waitingCount="0" stopTime="0.00" timeLoss="12.13" rerouteNo="0" devices="tripinfo_ES.cv.6 routing_ES.cv.6" vType="cv" speedFactor="0.84" vaporized=""/>
    <tripinfo id="WE.cv.2" depart="65.00" departLane="E0_0" departPos="5.10" departSpeed="18.62" departDelay="0.00" arrival="147.00" arrivalLane="E2_0" arrivalPos="508.36" arrivalSpeed="18.62" duration="82.00" routeLength="1002.59" waitingTime="16.00" waitingCount="1" stopTime="0.00" timeLoss="28.03" rerouteNo="0" devices="tripinfo_WE.cv.2 routing_WE.cv.2" vType="cv" speedFactor="1.19" vaporized=""/>
    <tripinfo id="EW.cv.5" depart="60.00" departLane="-E2_0" departPos="5.10" departSpeed="18.46" departDelay="0.00" arrival="149.00" arrivalLane="-E0_1" arrivalPos="500.03" arrivalSpeed="18.46" duration="89.00" routeLength="1001.60" waitingTime="21.00" waitingCount="1" stopTime="0.00" timeLoss="34.71" rerouteNo="0" devices="tripinfo_EW.cv.5 routing_EW.cv.5" vType="cv" speedFactor="1.18" vaporized=""/>
    <tripinfo id="WE.0" depart="68.00" departLane="E0_1" departPos="5.10" departSpeed="17.16" departDelay="0.00" arrival="149.00" arrivalLane="E2_1" arrivalPos="508.36" arrivalSpeed="17.16" duration="81.00" routeLength="1002.59" waitingTime="11.00" waitingCount="1" stopTime="0.00" timeLoss="22.47" rerouteNo="0" devices="tripinfo_WE.0 routing_WE.0" vType="car" speedFactor="1.10" vaporized=""/>
    <tripinfo id="WE.cv.3" depart="80.00" departLane="E0_1" departPos="5.10" departSpeed="19.21" departDelay="0.00" arrival="151.00" arrivalLane="E2_1" arrivalPos="508.36" arrivalSpeed="18.49" duration="71.00" routeLength="1002.59" waitingTime="3.00" waitingCount="1" stopTime="0.00" timeLoss="18.78" rerouteNo="0" devices="tripinfo_WE.cv.3 routing_WE.cv.3" vType="cv" speedFactor="1.23" vaporized=""/>
    <tripinfo id="EW.cv.3" depart="39.00" departLane="-E2_1" departPos="5.10" departSpeed="14.81" departDelay="0.00" arrival="152.00" arrivalLane="-E0_0" arrivalPos="500.03" arrivalSpeed="14.81" duration="113.00" routeLength="1001.60" waitingTime="35.00" waitingCount="1" stopTime="0.00" timeLoss="44.91" rerouteNo="0" devices="tripinfo_EW.cv.3 routing_EW.cv.3" vType="cv" speedFactor="0.95" vaporized=""/>
    <tripinfo id="WE.1" depart="88.00" departLane="E0_0" departPos="5.10" departSpeed="17.36" departDelay="0.00" arrival="152.00" arrivalLane="E2_0" arrivalPos="508.36" arrivalSpeed="17.35" duration="64.00" routeLength="1002.59" waitingTime="0.00" waitingCount="0" stopTime="0.00" timeLoss="5.42" rerouteNo="0" devices="tripinfo_WE.1 routing_WE.1" vType="car" speedFactor="1.11" vaporized=""/>
    <tripinfo id="EW.cv.6" depart="73.00" departLane="-E2_1" departPos="5.10" departSpeed="16.50" departDelay="0.00" arrival="154.00" arrivalLane="-E0_1" arrivalPos="500.03" arrivalSpeed="16.49" duration="81.00" routeLength="1001.60" waitingTime="7.00" waitingCount="1" stopTime="0.00" timeLoss="20.03" rerouteNo="0" devices="tripinfo_EW.cv.6 routing_EW.cv.6" vType="cv" speedFactor="1.05" vaporized=""/>
    <tripinfo id="SE.0" depart="95.00" departLane="-E3_0" departPos="5.10" departSpeed="23.06" departDelay="0.00" arrival="154.00" arrivalLane="E2_0" arrivalPos="508.36" arrivalSpeed="17.63" duration="59.00" routeLength="1004.51" waitingTime="0.00" waitingCount="0" stopTime="0.00" timeLoss="8.97" rerouteNo="0" devices="tripinfo_SE.0 routing_SE.0" vType="car" speedFactor="1.15" vaporized=""/>
    <tripinfo id="EW.2" depart="40.00" departLane="-E2_0" departPos="5.10" departSpeed="15.45" departDelay="0.00" arrival="157.00" arrivalLane="-E0_1" arrivalPos="500.03" arrivalSpeed="15.39" duration="117.00" routeLength="1001.60" waitingTime="37.00" waitingCount="1" stopTime="0.00" timeLoss="52.08" rerouteNo="0" devices="tripinfo_EW.2 routing_EW.2" vType="car" speedFactor="0.99" vaporized=""/>
    <tripinfo id="EW.cv.2" depart="29.00" departLane="-E2_1" departPos="5.10" departSpeed="12.80" departDelay="0.00" arrival="158.00" arrivalLane="-E0_0" arrivalPos="500.03" arrivalSpeed="12.80" duration="129.00" routeLength="1001.60" waitingTime="40.00" waitingCount="1" stopTime="0.00" timeLoss="49.88" rerouteNo="0" devices="tripinfo_EW.cv.2 routing_EW.cv.2" vType="cv" speedFactor="0.82" vaporized=""/>
    <tripinfo id="EW.cv.7" depart="77.00" departLane="-E2_0" departPos="5.10" departSpeed="15.03" departDelay="0.00" arrival="160.00" arrivalLane="-E0_1" arrivalPos="500.03" arrivalSpeed="14.94" duration="83.00" routeLength="1001.60" waitingTime="2.00" waitingCount="1" stopTime="0.00" timeLoss="16.03" rerouteNo="0" devices="tripinfo_EW.cv.7 routing_EW.cv.7" vType="cv" speedFactor="0.96" vaporized=""/>
    <tripinfo id="EW.cv.4" depart="56.00" departLane="-E2_1" departPos="5.10" departSpeed="12.83" departDelay="0.00" arrival="163.00" arrivalLane="-E0_0" arrivalPos="500.03" arrivalSpeed="12.83" duration="107.00" routeLength="1001.60" waitingTime="16.00" waitingCount="1" stopTime="0.00" timeLoss="28.13" rerouteNo="0" devices="tripinfo_EW.cv.4 routing_EW.cv.4" vType="cv" speedFactor="0.82" vaporized=""/>
    <tripinfo id="SW.cv.3" depart="113.00" departLane="-E3_3" departPos="5.10" departSpeed="25.07" departDelay="0.00" arrival="166.00" arrivalLane="-E0_1" arrivalPos="500.03" arrivalSpeed="19.48" duration="53.00" routeLength="996.18" waitingTime="0.00" waitingCount="0" stopTime="0.00" timeLoss="6.55" rerouteNo="0" devices="tripinfo_SW.cv.3 routing_SW.cv.3" vType="cv" speedFactor="1.25" vaporized=""/>
    <tripinfo id="SW.0" depart="64.00" departLane="-E3_3" departPos="5.10" departSpeed="18.75" departDelay="0.00" arrival="171.00" arrivalLane="-E0_0" arrivalPos="500.03" arrivalSpeed="14.58" duration="107.00" routeLength="996.18" waitingTime="34.00" waitingCount="1" stopTime="0.00" timeLoss="45.39" rerouteNo="0" devices="tripinfo_SW.0 routing_SW.0" vType="car" speedFactor="0.93" vaporized=""/>
    <tripinfo id="NE.cv.0" depart="75.00" departLane="E1_3" departPos="5.10" departSpeed="19.02" departDelay="0.00" arrival="171.00" arrivalLane="E2_0" arrivalPos="508.36" arrivalSpeed="14.79" duration="96.00" routeLength="1002.03" waitingTime="24.00" waitingCount="1" stopTime="0.00" timeLoss="34.79" rerouteNo="0" devices="tripinfo_NE.cv.0 routing_NE.cv.0" vType="cv" speedFactor="0.95" vaporized=""/>
    <tripinfo id="SN.0" depart="89.00" departLane="-E3_1" departPos="5.10" departSpeed="21.12" departDelay="0.00" arrival="171.00" arrivalLane="-E1_0" arrivalPos="498.92" arrivalSpeed="21.12" duration="82.00" routeLength="995.07" waitingTime="22.00" waitingCount="1" stopTime="0.00" timeLoss="34.62" rerouteNo="0" devices="tripinfo_SN.0 routing_SN.0" vType="car" speedFactor="1.05" vaporized=""/>
    <tripinfo id="NS.cv.8" depart="91.00" departLane="E1_1" departPos="5.10" departSpeed="22.02" departDelay="0.00" arrival="172.00" arrivalLane="E3_1" arrivalPos="501.31" arrivalSpeed="22.02" duration="81.00" routeLength="994.98" waitingTime="22.00" waitingCount="1" stopTime="0.00" timeLoss="34.89" rerouteNo="0" devices="tripinfo_NS.cv.8 routing_NS.cv.8" vType="cv" speedFactor="1.09" vaporized=""/>
    <tripinfo id="NS.4" depart="85.00" departLane="E1_1" departPos="5.10" departSpeed="20.87" departDelay="0.00" arrival="173.00" arrivalLane="E3_0" arrivalPos="501.31" arrivalSpeed="20.87" duration="88.00" routeLength="994.98" waitingTime="27.00" waitingCount="1" stopTime="0.00" timeLoss="39.40" rerouteNo="0" devices="tripinfo_NS.4 routing_NS.4" vType="car" speedFactor="1.04" vaporized=""/>
    <tripinfo id="SN.cv.9" depart="78.00" departLane="-E3_1" departPos="5.10" departSpeed="18.80" departDelay="0.00" arrival="174.00" arrivalLane="-E1_0" arrivalPos="498.92" arrivalSpeed="18.72" duration="96.00" routeLength="995.07" waitingTime="31.00" waitingCount="1" stopTime="0.00" timeLoss="42.78" rerouteNo="0" devices="tripinfo_SN.cv.9 routing_SN.cv.9" vType="cv" speedFactor="0.93" vaporized=""/>
    <tripinfo id="SN.cv.11" depart="106.00" departLane="-E3_2" departPos="5.10" departSpeed="20.67" departDelay="0.00" arrival="174.00" arrivalLane="-E1_1" arrivalPos="498.92" arrivalSpeed="20.66" duration="68.00" routeLength="995.07" waitingTime="6.00" waitingCount="1" stopTime="0.00" timeLoss="19.60" rerouteNo="0" devices="tripinfo_SN.cv.11 routing_SN.cv.11" vType="cv" speedFactor="1.03" vaporized=""/>
    <tripinfo id="NS.cv.9" depart="95.00" departLane="E1_2" departPos="5.10" departSpeed="21.65" departDelay="0.00" arrival="175.00" arrivalLane="E3_0" arrivalPos="501.31" arrivalSpeed="21.14" duration="80.00" routeLength="994.98" waitingTime="19.00" waitingCount="1" stopTime="0.00" timeLoss="33.54" rerouteNo="0" devices="tripinfo_NS.cv.9 routing_NS.cv.9" vType="cv" speedFactor="1.08" vaporized=""/>
    <tripinfo id="NS.cv.10" depart="97.00" departLane="E1_1" departPos="5.10" departSpeed="19.73" departDelay="0.00" arrival="177.00" arrivalLane="E3_0" arrivalPos="501.31" arrivalSpeed="19.26" duration="80.00" routeLength="994.98" waitingTime="15.00" waitingCount="1" stopTime="0.00" timeLoss="29.14" rerouteNo="0" devices="tripinfo_NS.cv.10 routing_NS.cv.10" vType="cv" speedFactor="0.98" vaporized=""/>
    <tripinfo id="NS.cv.11" depart="98.00" departLane="E1_2" departPos="5.10" departSpeed="20.94" departDelay="0.00" arrival="178.00" arrivalLane="E3_1" arrivalPos="501.31" arrivalSpeed="20.93" duration="80.00" routeLength="994.98" waitingTime="17.00" waitingCount="1" stopTime="0.00" timeLoss="31.56" rerouteNo="0" devices="tripinfo_NS.cv.11 routing_NS.cv.11" vType="cv" speedFactor="1.04" vaporized=""/>
    <tripinfo id="SN.cv.12" depart="113.00" departLane="-E3_1" departPos="5.10" departSpeed="19.54" departDelay="0.00" arrival="178.00" arrivalLane="-E1_1" arrivalPos="498.92" arrivalSpeed="19.50" duration="65.00" routeLength="995.07" waitingTime="0.00" waitingCount="0" stopTime="0.00" timeLoss="13.45" rerouteNo="0" devices="tripinfo_SN.cv.12 routing_SN.cv.12" vType="cv" speedFactor="0.97" vaporized=""/>
    <tripinfo id="SN.cv.10" depart="96.00" departLane="-E3_1" departPos="5.10" departSpeed="16.85" departDelay="0.00" arrival="179.00" arrivalLane="-E1_0" arrivalPos="498.92" arrivalSpeed="16.84" duration="83.00" routeLength="995.07" waitingTime="11.00" waitingCount="1" stopTime="0.00" timeLoss="23.46" rerouteNo="0" devices="tripinfo_SN.cv.10 routing_SN.cv.10" vType="cv" speedFactor="0.84" vaporized=""/>