<?xml version="1.0" encoding="UTF-8"?>

<!-- generated on 2023-01-30 12:07:52 by Eclipse SUMO sumo Version 1.13.0
<configuration xmlns:xsi="http://www.w3.org/2001/XMLSchema-instance" xsi:noNamespaceSchemaLocation="http://sumo.dlr.de/xsd/sumoConfiguration.xsd">

    <input>
        <net-file value="data/Eastway-Central.net.xml"/>
        <route-files value="data/cav80-offpeak.rou.xml"/>
        <additional-files value="data/Eastway-Central.add.xml"/>
    </input>

    <output>
        <tripinfo-output value="result\2023-01-30-12-04-30\22_tripinfo.xml"/>
    </output>

    <report>
        <no-warnings value="true"/>
        <no-step-log value="true"/>
    </report>

    <traci_server>
        <remote-port value="54102"/>
    </traci_server>

    <random_number>
        <seed value="21"/>
    </random_number>

</configuration>
-->

<tripinfos xmlns:xsi="http://www.w3.org/2001/XMLSchema-instance" xsi:noNamespaceSchemaLocation="http://sumo.dlr.de/xsd/tripinfo_file.xsd">
    <tripinfo id="BNS.0" depart="0.00" departLane="E1_1" departPos="12.10" departSpeed="20.12" departDelay="0.00" arrival="50.00" arrivalLane="E3_0" arrivalPos="501.31" arrivalSpeed="20.12" duration="50.00" routeLength="987.98" waitingTime="0.00" waitingCount="0" stopTime="0.00" timeLoss="0.19" rerouteNo="0" devices="tripinfo_BNS.0 routing_BNS.0" vType="bus" speedFactor="1.00" vaporized=""/>
    <tripinfo id="SN.cv.0" depart="8.00" departLane="-E3_1" departPos="5.10" departSpeed="22.67" departDelay="0.00" arrival="52.00" arrivalLane="-E1_0" arrivalPos="498.92" arrivalSpeed="22.67" duration="44.00" routeLength="995.07" waitingTime="0.00" waitingCount="0" stopTime="0.00" timeLoss="0.01" rerouteNo="0" devices="tripinfo_SN.cv.0 routing_SN.cv.0" vType="cv" speedFactor="1.13" vaporized=""/>
    <tripinfo id="NS.cv.0" depart="4.00" departLane="E1_2" departPos="5.10" departSpeed="17.77" departDelay="0.00" arrival="61.00" arrivalLane="E3_0" arrivalPos="501.31" arrivalSpeed="17.77" duration="57.00" routeLength="994.98" waitingTime="0.00" waitingCount="0" stopTime="0.00" timeLoss="0.13" rerouteNo="0" devices="tripinfo_NS.cv.0 routing_NS.cv.0" vType="cv" speedFactor="0.88" vaporized=""/>
    <tripinfo id="NS.0" depart="8.00" departLane="E1_1" departPos="5.10" departSpeed="19.17" departDelay="0.00" arrival="61.00" arrivalLane="E3_1" arrivalPos="501.31" arrivalSpeed="19.17" duration="53.00" routeLength="994.98" waitingTime="0.00" waitingCount="0" stopTime="0.00" timeLoss="0.24" rerouteNo="0" devices="tripinfo_NS.0 routing_NS.0" vType="car" speedFactor="0.95" vaporized=""/>
    <tripinfo id="SN.cv.1" depart="19.00" departLane="-E3_2" departPos="5.10" departSpeed="20.97" departDelay="0.00" arrival="69.00" arrivalLane="-E1_0" arrivalPos="498.92" arrivalSpeed="20.97" duration="50.00" routeLength="995.07" waitingTime="0.00" waitingCount="0" stopTime="0.00" timeLoss="2.54" rerouteNo="0" devices="tripinfo_SN.cv.1 routing_SN.cv.1" vType="cv" speedFactor="1.04" vaporized=""/>
    <tripinfo id="SN.0" depart="21.00" departLane="-E3_1" departPos="5.10" departSpeed="23.38" departDelay="0.00" arrival="71.00" arrivalLane="-E1_1" arrivalPos="498.92" arrivalSpeed="23.38" duration="50.00" routeLength="995.07" waitingTime="0.00" waitingCount="0" stopTime="0.00" timeLoss="6.81" rerouteNo="0" devices="tripinfo_SN.0 routing_SN.0" vType="car" speedFactor="1.16" vaporized=""/>
    <tripinfo id="SE.cv.0" depart="11.00" departLane="-E3_0" departPos="5.10" departSpeed="18.59" departDelay="0.00" arrival="78.00" arrivalLane="E2_0" arrivalPos="508.36" arrivalSpeed="14.46" duration="67.00" routeLength="1004.51" waitingTime="0.00" waitingCount="0" stopTime="0.00" timeLoss="5.06" rerouteNo="0" devices="tripinfo_SE.cv.0 routing_SE.cv.0" vType="cv" speedFactor="0.92" vaporized=""/>
    <tripinfo id="SN.cv.2" depart="21.00" departLane="-E3_2" departPos="5.10" departSpeed="18.44" departDelay="0.00" arrival="78.00" arrivalLane="-E1_0" arrivalPos="498.92" arrivalSpeed="18.44" duration="57.00" routeLength="995.07" waitingTime="0.00" waitingCount="0" stopTime="0.00" timeLoss="2.53" rerouteNo="0" devices="tripinfo_SN.cv.2 routing_SN.cv.2" vType="cv" speedFactor="0.92" vaporized=""/>
    <tripinfo id="SW.0" depart="9.00" departLane="-E3_3" departPos="5.10" departSpeed="19.03" departDelay="0.00" arrival="81.00" arrivalLane="-E0_0" arrivalPos="500.03" arrivalSpeed="14.80" duration="72.00" routeLength="996.18" waitingTime="1.00" waitingCount="1" stopTime="0.00" timeLoss="11.65" rerouteNo="0" devices="tripinfo_SW.0 routing_SW.0" vType="car" speedFactor="0.95" vaporized=""/>
    <tripinfo id="SN.cv.3" depart="35.00" departLane="-E3_1" departPos="5.10" departSpeed="22.17" departDelay="0.00" arrival="81.00" arrivalLane="-E1_0" arrivalPos="498.92" arrivalSpeed="21.85" duration="46.00" routeLength="995.07" waitingTime="0.00" waitingCount="0" stopTime="0.00" timeLoss="0.78" rerouteNo="0" devices="tripinfo_SN.cv.3 routing_SN.cv.3" vType="cv" speedFactor="1.10" vaporized=""/>
    <tripinfo id="NS.1" depart="29.00" departLane="E1_2" departPos="5.10" departSpeed="21.64" departDelay="0.00" arrival="82.00" arrivalLane="E3_1" arrivalPos="501.31" arrivalSpeed="21.64" duration="53.00" routeLength="994.98" waitingTime="0.00" waitingCount="0" stopTime="0.00" timeLoss="6.15" rerouteNo="0" devices="tripinfo_NS.1 routing_NS.1" vType="car" speedFactor="1.08" vaporized=""/>
    <tripinfo id="NW.cv.0" depart="18.00" departLane="E1_0" departPos="5.10" departSpeed="19.82" departDelay="0.00" arrival="84.00" arrivalLane="-E0_0" arrivalPos="500.03" arrivalSpeed="15.34" duration="66.00" routeLength="993.70" waitingTime="0.00" waitingCount="0" stopTime="0.00" timeLoss="8.40" rerouteNo="0" devices="tripinfo_NW.cv.0 routing_NW.cv.0" vType="cv" speedFactor="0.98" vaporized=""/>
    <tripinfo id="NS.cv.1" depart="16.00" departLane="E1_1" departPos="5.10" departSpeed="19.14" departDelay="0.00" arrival="85.00" arrivalLane="E3_0" arrivalPos="501.31" arrivalSpeed="19.14" duration="69.00" routeLength="994.98" waitingTime="6.00" waitingCount="1" stopTime="0.00" timeLoss="16.90" rerouteNo="0" devices="tripinfo_NS.cv.1 routing_NS.cv.1" vType="cv" speedFactor="0.95" vaporized=""/>
    <tripinfo id="SW.1" depart="17.00" departLane="-E3_3" departPos="5.10" departSpeed="17.84" departDelay="0.00" arrival="85.00" arrivalLane="-E0_0" arrivalPos="500.03" arrivalSpeed="13.87" duration="68.00" routeLength="996.18" waitingTime="0.00" waitingCount="0" stopTime="0.00" timeLoss="3.73" rerouteNo="0" devices="tripinfo_SW.1 routing_SW.1" vType="car" speedFactor="0.89" vaporized=""/>
    <tripinfo id="NS.cv.3" depart="28.00" departLane="E1_1" departPos="5.10" departSpeed="21.13" departDelay="0.00" arrival="85.00" arrivalLane="E3_1" arrivalPos="501.31" arrivalSpeed="21.00" duration="57.00" routeLength="994.98" waitingTime="0.00" waitingCount="0" stopTime="0.00" timeLoss="9.31" rerouteNo="0" devices="tripinfo_NS.cv.3 routing_NS.cv.3" vType="cv" speedFactor="1.05" vaporized=""/>
    <tripinfo id="SN.cv.4" depart="40.00" departLane="-E3_1" departPos="5.10" departSpeed="21.75" departDelay="0.00" arrival="87.00" arrivalLane="-E1_0" arrivalPos="498.92" arrivalSpeed="21.74" duration="47.00" routeLength="995.07" waitingTime="0.00" waitingCount="0" stopTime="0.00" timeLoss="0.28" rerouteNo="0" devices="tripinfo_SN.cv.4 routing_SN.cv.4" vType="cv" speedFactor="1.08" vaporized=""/>
    <tripinfo id="NW.0" depart="25.00" departLane="E1_0" departPos="5.10" departSpeed="20.88" departDelay="0.00" arrival="91.00" arrivalLane="-E0_0" arrivalPos="500.03" arrivalSpeed="16.24" duration="66.00" routeLength="993.70" waitingTime="0.00" waitingCount="0" stopTime="0.00" timeLoss="10.79" rerouteNo="0" devices="tripinfo_NW.0 routing_NW.0" vType="car" speedFactor="1.04" vaporized=""/>
    <tripinfo id="NS.cv.4" depart="37.00" departLane="E1_1" departPos="5.10" departSpeed="18.94" departDelay="0.00" arrival="91.00" arrivalLane="E3_1" arrivalPos="501.31" arrivalSpeed="18.94" duration="54.00" routeLength="994.98" waitingTime="0.00" waitingCount="0" stopTime="0.00" timeLoss="0.92" rerouteNo="0" devices="tripinfo_NS.cv.4 routing_NS.cv.4" vType="cv" speedFactor="0.94" vaporized=""/>
    <tripinfo id="NS.cv.2" depart="23.00" departLane="E1_2" departPos="5.10" departSpeed="16.25" departDelay="0.00" arrival="92.00" arrivalLane="E3_0" arrivalPos="501.31" arrivalSpeed="16.25" duration="69.00" routeLength="994.98" waitingTime="0.00" waitingCount="0" stopTime="0.00" timeLoss="7.00" rerouteNo="0" devices="tripinfo_NS.cv.2 routing_NS.cv.2" vType="cv" speedFactor="0.81" vaporized=""/>
    <tripinfo id="NS.cv.5" depart="43.00" departLane="E1_2" departPos="5.10" departSpeed="22.30" departDelay="0.00" arrival="93.00" arrivalLane="E3_1" arrivalPos="501.31" arrivalSpeed="20.86" duration="50.00" routeLength="994.98" waitingTime="0.00" waitingCount="0" stopTime="0.00" timeLoss="4.71" rerouteNo="0" devices="tripinfo_NS.cv.5 routing_NS.cv.5" vType="cv" speedFactor="1.11" vaporized=""/>
    <tripinfo id="WS.cv.0" depart="31.00" departLane="E0_0" departPos="5.10" departSpeed="15.84" departDelay="0.00" arrival="96.00" arrivalLane="E3_0" arrivalPos="501.31" arrivalSpeed="20.28" duration="65.00" routeLength="995.54" waitingTime="0.00" waitingCount="0" stopTime="0.00" timeLoss="8.94" rerouteNo="0" devices="tripinfo_WS.cv.0 routing_WS.cv.0" vType="cv" speedFactor="1.01" vaporized=""/>
    <tripinfo id="WN.0" depart="18.00" departLane="E0_2" departPos="5.10" departSpeed="17.15" departDelay="0.00" arrival="100.00" arrivalLane="-E1_0" arrivalPos="498.92" arrivalSpeed="22.04" duration="82.00" routeLength="993.15" waitingTime="18.00" waitingCount="1" stopTime="0.00" timeLoss="30.50" rerouteNo="0" devices="tripinfo_WN.0 routing_WN.0" vType="car" speedFactor="1.10" vaporized=""/>
    <tripinfo id="ES.cv.1" depart="32.00" departLane="-E2_3" departPos="5.10" departSpeed="14.35" departDelay="0.00" arrival="104.00" arrivalLane="E3_0" arrivalPos="501.31" arrivalSpeed="18.45" duration="72.00" routeLength="1002.88" waitingTime="0.00" waitingCount="0" stopTime="0.00" timeLoss="9.57" rerouteNo="0" devices="tripinfo_ES.cv.1 routing_ES.cv.1" vType="cv" speedFactor="0.92" vaporized=""/>
    <tripinfo id="ES.cv.0" depart="6.00" departLane="-E2_2" departPos="5.10" departSpeed="14.13" departDelay="0.00" arrival="105.00" arrivalLane="E3_0" arrivalPos="501.31" arrivalSpeed="18.16" duration="99.00" routeLength="1002.88" waitingTime="24.00" waitingCount="1" stopTime="0.00" timeLoss="35.01" rerouteNo="0" devices="tripinfo_ES.cv.0 routing_ES.cv.0" vType="cv" speedFactor="0.90" vaporized=""/>
    <tripinfo id="WN.cv.0" depart="33.00" departLane="E0_3" departPos="5.10" departSpeed="13.31" departDelay="0.00" arrival="105.00" arrivalLane="-E1_0" arrivalPos="498.92" arrivalSpeed="17.11" duration="72.00" routeLength="993.15" waitingTime="0.00" waitingCount="0" stopTime="0.00" timeLoss="5.79" rerouteNo="0" devices="tripinfo_WN.cv.0 routing_WN.cv.0" vType="cv" speedFactor="0.85" vaporized=""/>
    <tripinfo id="SE.cv.1" depart="44.00" departLane="-E3_0" departPos="5.10" departSpeed="20.82" departDelay="0.00" arrival="108.00" arrivalLane="E2_0" arrivalPos="508.36" arrivalSpeed="16.19" duration="64.00" routeLength="1004.51" waitingTime="0.00" waitingCount="0" stopTime="0.00" timeLoss="7.81" rerouteNo="0" devices="tripinfo_SE.cv.1 routing_SE.cv.1" vType="cv" speedFactor="1.03" vaporized=""/>
    <tripinfo id="WS.cv.1" depart="34.00" departLane="E0_0" departPos="5.10" departSpeed="13.12" departDelay="0.00" arrival="109.00" arrivalLane="E3_0" arrivalPos="501.31" arrivalSpeed="16.86" duration="75.00" routeLength="995.54" waitingTime="0.00" waitingCount="0" stopTime="0.00" timeLoss="7.27" rerouteNo="0" devices="tripinfo_WS.cv.1 routing_WS.cv.1" vType="cv" speedFactor="0.84" vaporized=""/>
    <tripinfo id="NW.cv.1" depart="44.00" departLane="E1_0" departPos="5.10" departSpeed="18.84" departDelay="0.00" arrival="111.00" arrivalLane="-E0_0" arrivalPos="500.03" arrivalSpeed="14.65" duration="67.00" routeLength="993.70" waitingTime="0.00" waitingCount="0" stopTime="0.00" timeLoss="5.68" rerouteNo="0" devices="tripinfo_NW.cv.1 routing_NW.cv.1" vType="cv" speedFactor="0.94" vaporized=""/>
    <tripinfo id="NW.cv.2" depart="48.00" departLane="E1_0" departPos="5.10" departSpeed="19.82" departDelay="0.00" arrival="114.00" arrivalLane="-E0_1" arrivalPos="500.03" arrivalSpeed="15.41" duration="66.00" routeLength="993.70" waitingTime="0.00" waitingCount="0" stopTime="0.00" timeLoss="7.73" rerouteNo="0" devices="tripinfo_NW.cv.2 routing_NW.cv.2" vType="cv" speedFactor="0.99" vaporized=""/>
    <tripinfo id="WS.0" depart="57.00" departLane="E0_0" departPos="5.10" departSpeed="17.35" departDelay="0.00" arrival="117.00" arrivalLane="E3_1" arrivalPos="501.31" arrivalSpeed="22.31" duration="60.00" routeLength="995.54" waitingTime="0.00" waitingCount="0" stopTime="0.00" timeLoss="8.96" rerouteNo="0" devices="tripinfo_WS.0 routing_WS.0" vType="car" speedFactor="1.11" vaporized=""/>
    <tripinfo id="EW.cv.0" depart="11.00" departLane="-E2_0" departPos="5.10" departSpeed="16.14" departDelay="0.00" arrival="118.00" arrivalLane="-E0_1" arrivalPos="500.03" arrivalSpeed="16.12" duration="107.00" routeLength="1001.60" waitingTime="33.00" waitingCount="1" stopTime="0.00" timeLoss="44.27" rerouteNo="0" devices="tripinfo_EW.cv.0 routing_EW.cv.0" vType="cv" speedFactor="1.03" vaporized=""/>
    <tripinfo id="EW.cv.1" depart="26.00" departLane="-E2_1" departPos="5.10" departSpeed="15.38" departDelay="0.00" arrival="119.00" arrivalLane="-E0_0" arrivalPos="500.03" arrivalSpeed="15.38" duration="93.00" routeLength="1001.60" waitingTime="17.00" waitingCount="1" stopTime="0.00" timeLoss="27.48" rerouteNo="0" devices="tripinfo_EW.cv.1 routing_EW.cv.1" vType="cv" speedFactor="0.98" vaporized=""/>
    <tripinfo id="EW.cv.3" depart="38.00" departLane="-E2_0" departPos="5.10" departSpeed="17.85" departDelay="0.00" arrival="120.00" arrivalLane="-E0_1" arrivalPos="500.03" arrivalSpeed="17.24" duration="82.00" routeLength="1001.60" waitingTime="9.00" waitingCount="1" stopTime="0.00" timeLoss="25.38" rerouteNo="0" devices="tripinfo_EW.cv.3 routing_EW.cv.3" vType="cv" speedFactor="1.14" vaporized=""/>
    <tripinfo id="WE.cv.1" depart="57.00" departLane="E0_1" departPos="5.10" departSpeed="16.38" departDelay="0.00" arrival="121.00" arrivalLane="E2_0" arrivalPos="508.36" arrivalSpeed="16.38" duration="64.00" routeLength="1002.59" waitingTime="0.00" waitingCount="0" stopTime="0.00" timeLoss="2.57" rerouteNo="0" devices="tripinfo_WE.cv.1 routing_WE.cv.1" vType="cv" speedFactor="1.05" vaporized=""/>
    <tripinfo id="EW.cv.2" depart="35.00" departLane="-E2_1" departPos="5.10" departSpeed="15.42" departDelay="0.00" arrival="122.00" arrivalLane="-E0_0" arrivalPos="500.03" arrivalSpeed="15.36" duration="87.00" routeLength="1001.60" waitingTime="9.00" waitingCount="1" stopTime="0.00" timeLoss="22.01" rerouteNo="0" devices="tripinfo_EW.cv.2 routing_EW.cv.2" vType="cv" speedFactor="0.99" vaporized=""/>
    <tripinfo id="WE.cv.0" depart="52.00" departLane="E0_1" departPos="5.10" departSpeed="16.02" departDelay="0.00" arrival="123.00" arrivalLane="E2_1" arrivalPos="508.36" arrivalSpeed="16.02" duration="71.00" routeLength="1002.59" waitingTime="0.00" waitingCount="0" stopTime="0.00" timeLoss="8.33" rerouteNo="0" devices="tripinfo_WE.cv.0 routing_WE.cv.0" vType="cv" speedFactor="1.02" vaporized=""/>
    <tripinfo id="EW.0" depart="55.00" departLane="-E2_0" departPos="5.10" departSpeed="15.61" departDelay="0.00" arrival="124.00" arrivalLane="-E0_1" arrivalPos="500.03" arrivalSpeed="15.59" duration="69.00" routeLength="1001.60" waitingTime="0.00" waitingCount="0" stopTime="0.00" timeLoss="4.38" rerouteNo="0" devices="tripinfo_EW.0 routing_EW.0" vType="car" speedFactor="1.00" vaporized=""/>
    <tripinfo id="SE.cv.3" depart="61.00" departLane="-E3_0" departPos="5.10" departSpeed="17.03" departDelay="0.00" arrival="126.00" arrivalLane="E2_0" arrivalPos="508.36" arrivalSpeed="17.54" duration="65.00" routeLength="1004.51" waitingTime="0.00" waitingCount="0" stopTime="0.00" timeLoss="13.98" rerouteNo="0" devices="tripinfo_SE.cv.3 routing_SE.cv.3" vType="cv" speedFactor="1.12" vaporized=""/>
    <tripinfo id="SE.cv.2" depart="60.00" departLane="-E3_0" departPos="5.10" departSpeed="19.35" departDelay="0.00" arrival="127.00" arrivalLane="E2_0" arrivalPos="508.36" arrivalSpeed="15.04" duration="67.00" routeLength="1004.51" waitingTime="0.00" waitingCount="0" stopTime="0.00" timeLoss="7.50" rerouteNo="0" devices="tripinfo_SE.cv.2 routing_SE.cv.2" vType="cv" speedFactor="0.96" vaporized=""/>
    <tripinfo id="WE.cv.2" depart="67.00" departLane="E0_0" departPos="5.10" departSpeed="17.15" departDelay="0.00" arrival="129.00" arrivalLane="E2_1" arrivalPos="508.36" arrivalSpeed="16.81" duration="62.00" routeLength="1002.59" waitingTime="0.00" waitingCount="0" stopTime="0.00" timeLoss="3.46" rerouteNo="0" devices="tripinfo_WE.cv.2 routing_WE.cv.2" vType="cv" speedFactor="1.10" vaporized=""/>
    <tripinfo id="NW.cv.3" depart="63.00" departLane="E1_0" departPos="5.10" departSpeed="18.80" departDelay="0.00" arrival="130.00" arrivalLane="-E0_0" arrivalPos="500.03" arrivalSpeed="14.62" duration="67.00" routeLength="993.70" waitingTime="0.00" waitingCount="0" stopTime="0.00" timeLoss="5.91" rerouteNo="0" devices="tripinfo_NW.cv.3 routing_NW.cv.3" vType="cv" speedFactor="0.93" vaporized=""/>
    <tripinfo id="WE.cv.3" depart="69.00" departLane="E0_1" departPos="5.10" departSpeed="16.91" departDelay="0.00" arrival="131.00" arrivalLane="E2_0" arrivalPos="508.36" arrivalSpeed="16.87" duration="62.00" routeLength="1002.59" waitingTime="0.00" waitingCount="0" stopTime="0.00" timeLoss="2.07" rerouteNo="0" devices="tripinfo_WE.cv.3 routing_WE.cv.3" vType="cv" speedFactor="1.08" vaporized=""/>
    <tripinfo id="SN.1" depart="49.00" departLane="-E3_2" departPos="5.10" departSpeed="22.54" departDelay="0.00" arrival="133.00" arrivalLane="-E1_1" arrivalPos="498.92" arrivalSpeed="22.54" duration="84.00" routeLength="995.07" waitingTime="25.00" waitingCount="1" stopTime="0.00" timeLoss="39.41" rerouteNo="0" devices="tripinfo_SN.1 routing_SN.1" vType="car" speedFactor="1.12" vaporized=""/>
    <tripinfo id="SN.cv.5" depart="50.00" departLane="-E3_1" departPos="5.10" departSpeed="21.22" departDelay="0.00" arrival="134.00" arrivalLane="-E1_0" arrivalPos="498.92" arrivalSpeed="21.22" duration="84.00" routeLength="995.07" waitingTime="24.00" waitingCount="1" stopTime="0.00" timeLoss="36.76" rerouteNo="0" devices="tripinfo_SN.cv.5 routing_SN.cv.5" vType="cv" speedFactor="1.05" vaporized=""/>
    <tripinfo id="SN.2" depart="57.00" departLane="-E3_2" departPos="5.10" departSpeed="21.39" departDelay="0.00" arrival="137.00" arrivalLane="-E1_0" arrivalPos="498.92" arrivalSpeed="21.20" duration="80.00" routeLength="995.07" waitingTime="19.00" waitingCount="1" stopTime="0.00" timeLoss="33.01" rerouteNo="0" devices="tripinfo_SN.2 routing_SN.2" vType="car" speedFactor="1.06" vaporized=""/>
    <tripinfo id="SE.0" depart="80.00" departLane="-E3_0" departPos="5.10" departSpeed="22.91" departDelay="0.00" arrival="139.00" arrivalLane="E2_1" arrivalPos="508.36" arrivalSpeed="17.82" duration="59.00" routeLength="1004.51" waitingTime="0.00" waitingCount="0" stopTime="0.00" timeLoss="8.10" rerouteNo="0" devices="tripinfo_SE.0 routing_SE.0" vType="car" speedFactor="1.14" vaporized=""/>
    <tripinfo id="SW.cv.0" depart="46.00" departLane="-E3_3" departPos="5.10" departSpeed="20.59" departDelay="0.00" arrival="141.00" arrivalLane="-E0_0" arrivalPos="500.03" arrivalSpeed="16.02" duration="95.00" routeLength="996.18" waitingTime="27.00" waitingCount="1" stopTime="0.00" timeLoss="38.93" rerouteNo="0" devices="tripinfo_SW.cv.0 routing_SW.cv.0" vType="cv" speedFactor="1.02" vaporized=""/>
    <tripinfo id="SN.cv.7" depart="63.00" departLane="-E3_2" departPos="5.10" departSpeed="18.71" departDelay="0.00" arrival="141.00" arrivalLane="-E1_1" arrivalPos="498.92" arrivalSpeed="18.71" duration="78.00" routeLength="995.07" waitingTime="11.00" waitingCount="1" stopTime="0.00" timeLoss="24.59" rerouteNo="0" devices="tripinfo_SN.cv.7 routing_SN.cv.7" vType="cv" speedFactor="0.93" vaporized=""/>
    <tripinfo id="SN.cv.6" depart="60.00" departLane="-E3_1" departPos="5.10" departSpeed="17.10" departDelay="0.00" arrival="142.00" arrivalLane="-E1_0" arrivalPos="498.92" arrivalSpeed="17.10" duration="82.00" routeLength="995.07" waitingTime="11.00" waitingCount="1" stopTime="0.00" timeLoss="22.98" rerouteNo="0" devices="tripinfo_SN.cv.6 routing_SN.cv.6" vType="cv" speedFactor="0.85" vaporized=""/>
    <tripinfo id="SN.cv.9" depart="67.00" departLane="-E3_2" departPos="5.10" departSpeed="22.77" departDelay="0.00" arrival="143.00" arrivalLane="-E1_1" arrivalPos="498.92" arrivalSpeed="20.93" duration="76.00" routeLength="995.07" waitingTime="11.00" waitingCount="1" stopTime="0.00" timeLoss="31.80" rerouteNo="0" devices="tripinfo_SN.cv.9 routing_SN.cv.9" vType="cv" speedFactor="1.13" vaporized=""/>
    <tripinfo id="NW.1" depart="76.00" departLane="E1_0" departPos="5.10" departSpeed="18.80" departDelay="0.00" arrival="143.00" arrivalLane="-E0_0" arrivalPos="500.03" arrivalSpeed="14.45" duration="67.00" routeLength="993.70" waitingTime="0.00" waitingCount="0" stopTime="0.00" timeLoss="6.18" rerouteNo="0" devices="tripinfo_NW.1 routing_NW.1" vType="car" speedFactor="0.93" vaporized=""/>
    <tripinfo id="SW.2" depart="74.00" departLane="-E3_3" departPos="5.10" departSpeed="20.21" departDelay="0.00" arrival="144.00" arrivalLane="-E0_1" arrivalPos="500.03" arrivalSpeed="15.72" duration="70.00" routeLength="996.18" waitingTime="0.00" waitingCount="0" stopTime="0.00" timeLoss="13.51" rerouteNo="0" devices="tripinfo_SW.2 routing_SW.2" vType="car" speedFactor="1.00" vaporized=""/>
    <tripinfo id="NS.cv.6" depart="58.00" departLane="E1_2" departPos="5.10" departSpeed="22.08" departDelay="0.00" arrival="145.00" arrivalLane="E3_1" arrivalPos="501.31" arrivalSpeed="22.08" duration="87.00" routeLength="994.98" waitingTime="28.00" waitingCount="1" stopTime="0.00" timeLoss="41.52" rerouteNo="0" devices="tripinfo_NS.cv.6 routing_NS.cv.6" vType="cv" speedFactor="1.10" vaporized=""/>
    <tripinfo id="SN.cv.8" depart="64.00" departLane="-E3_1" departPos="5.10" departSpeed="17.29" departDelay="0.00" arrival="145.00" arrivalLane="-E1_0" arrivalPos="498.92" arrivalSpeed="17.18" duration="81.00" routeLength="995.07" waitingTime="8.00" waitingCount="1" stopTime="0.00" timeLoss="22.55" rerouteNo="0" devices="tripinfo_SN.cv.8 routing_SN.cv.8" vType="cv" speedFactor="0.86" vaporized=""/>
    <tripinfo id="WS.cv.2" depart="75.00" departLane="E0_0" departPos="5.10" departSpeed="13.87" departDelay="0.00" arrival="145.00" arrivalLane="E3_0" arrivalPos="501.31" arrivalSpeed="17.83" duration="70.00" routeLength="995.54" waitingTime="0.00" waitingCount="0" stopTime="0.00" timeLoss="5.90" rerouteNo="0" devices="tripinfo_WS.cv.2 routing_WS.cv.2" vType="cv" speedFactor="0.89" vaporized=""/>
    <tripinfo id="SN.cv.11" depart="89.00" departLane="-E3_1" departPos="5.10" departSpeed="22.93" departDelay="0.00" arrival="145.00" arrivalLane="-E1_1" arrivalPos="498.92" arrivalSpeed="21.51" duration="56.00" routeLength="995.07" waitingTime="0.00" waitingCount="0" stopTime="0.00" timeLoss="12.04" rerouteNo="0" devices="tripinfo_SN.cv.11 routing_SN.cv.11" vType="cv" speedFactor="1.14" vaporized=""/>
    <tripinfo id="SN.cv.10" depart="85.00" departLane="-E3_2" departPos="5.10" departSpeed="20.23" departDelay="0.00" arrival="146.00" arrivalLane="-E1_0" arrivalPos="498.92" arrivalSpeed="18.15" duration="61.00" routeLength="995.07" waitingTime="0.00" waitingCount="0" stopTime="0.00" timeLoss="11.78" rerouteNo="0" devices="tripinfo_SN.cv.10 routing_SN.cv.10" vType="cv" speedFactor="1.01" vaporized=""/>
    <tripinfo id="SN.3" depart="92.00" departLane="-E3_1" departPos="5.10" departSpeed="21.61" departDelay="0.00" arrival="147.00" arrivalLane="-E1_1" arrivalPos="498.92" arrivalSpeed="20.93" duration="55.00" routeLength="995.07" waitingTime="0.00" waitingCount="0" stopTime="0.00" timeLoss="8.65" rerouteNo="0" devices="tripinfo_SN.3 routing_SN.3" vType="car" speedFactor="1.07" vaporized=""/>
    <tripinfo id="NS.cv.7" depart="69.00" departLane="E1_1" departPos="5.10" departSpeed="17.92" departDelay="0.00" arrival="151.00" arrivalLane="E3_0" arrivalPos="501.31" arrivalSpeed="17.92" duration="82.00" routeLength="994.98" waitingTime="14.00" waitingCount="1" stopTime="0.00" timeLoss="26.23" rerouteNo="0" devices="tripinfo_NS.cv.7 routing_NS.cv.7" vType="cv" speedFactor="0.89" vaporized=""/>
    <tripinfo id="SE.cv.4" depart="84.00" departLane="-E3_0" departPos="5.10" departSpeed="18.96" departDelay="0.00" arrival="151.00" arrivalLane="E2_0" arrivalPos="508.36" arrivalSpeed="14.75" duration="67.00" routeLength="1004.51" waitingTime="0.00" waitingCount="0" stopTime="0.00" timeLoss="5.75" rerouteNo="0" devices="tripinfo_SE.cv.4 routing_SE.cv.4" vType="cv" speedFactor="0.94" vaporized=""/>
    <tripinfo id="NS.cv.10" depart="85.00" departLane="E1_2" departPos="5.10" departSpeed="21.91" departDelay="0.00" arrival="153.00" arrivalLane="E3_1" arrivalPos="501.31" arrivalSpeed="21.22" duration="68.00" routeLength="994.98" waitingTime="2.00" waitingCount="1" stopTime="0.00" timeLoss="21.79" rerouteNo="0" devices="tripinfo_NS.cv.10 routing_NS.cv.10" vType="cv" speedFactor="1.09" vaporized=""/>
    <tripinfo id="NS.2" depart="49.00" departLane="E1_1" departPos="5.10" departSpeed="15.06" departDelay="0.00" arrival="154.00" arrivalLane="E3_0" arrivalPos="501.31" arrivalSpeed="15.03" duration="105.00" routeLength="994.98" waitingTime="28.00" waitingCount="1" stopTime="0.00" timeLoss="38.36" rerouteNo="0" devices="tripinfo_NS.2 routing_NS.2" vType="car" speedFactor="0.75" vaporized=""/>
    <tripinfo id="NS.cv.8" depart="73.00" departLane="E1_2" departPos="5.10" departSpeed="20.49" departDelay="0.00" arrival="156.00" arrivalLane="E3_0" arrivalPos="501.31" arrivalSpeed="17.96" duration="83.00" routeLength="994.98" waitingTime="9.00" waitingCount="1" stopTime="0.00" timeLoss="33.58" rerouteNo="0" devices="tripinfo_NS.cv.8 routing_NS.cv.8" vType="cv" speedFactor="1.02" vaporized=""/>
    <tripinfo id="NS.cv.11" depart="94.00" departLane="E1_2" departPos="5.10" departSpeed="18.62" departDelay="0.00" arrival="156.00" arrivalLane="E3_1" arrivalPos="501.31" arrivalSpeed="18.53" duration="62.00" routeLength="994.98" waitingTime="0.00" waitingCount="0" stopTime="0.00" timeLoss="7.74" rerouteNo="0" devices="tripinfo_NS.cv.11 routing_NS.cv.11" vType="cv" speedFactor="0.93" vaporized=""/>
    <tripinfo id="NS.cv.9" depart="84.00" departLane="E1_1" departPos="5.10" departSpeed="17.82" departDelay="0.00" arrival="157.00" arrivalLane="E3_0" arrivalPos="501.31" arrivalSpeed="16.41" duration="73.00" routeLength="994.98" waitingTime="0.00" waitingCount="0" stopTime="0.00" timeLoss="17.16" rerouteNo="0" devices="tripinfo_NS.cv.9 routing_NS.cv.9" vType="cv" speedFactor="0.89" vaporized=""/>
    <tripinfo id="NS.cv.12" depart="97.00" departLane="E1_1" departPos="5.10" departSpeed="21.16" departDelay="0.00" arrival="158.00" arrivalLane="E3_1" arrivalPos="501.31" arrivalSpeed="19.88" duration="61.00" routeLength="994.98" waitingTime="0.00" waitingCount="0" stopTime="0.00" timeLoss="13.05" rerouteNo="0" devices="tripinfo_NS.cv.12 routing_NS.cv.12" vType="cv" speedFactor="1.05" vaporized=""/>
    <tripinfo id="NS.cv.13" depart="104.00" departLane="E1_1" departPos="5.10" departSpeed="20.78" departDelay="0.00" arrival="159.00" arrivalLane="E3_1" arrivalPos="501.31" arrivalSpeed="19.08" duration="55.00" routeLength="994.98" waitingTime="0.00" waitingCount="0" stopTime="0.00" timeLoss="7.07" rerouteNo="0" devices="tripinfo_NS.cv.13 routing_NS.cv.13" vType="cv" speedFactor="1.03" vaporized=""/>
    <tripinfo id="SN.cv.13" depart="105.00" departLane="-E3_1" departPos="5.10" departSpeed="18.86" departDelay="0.00" arrival="160.00" arrivalLane="-E1_0" arrivalPos="498.92" arrivalSpeed="18.86" duration="55.00" routeLength="995.07" waitingTime="0.00" waitingCount="0" stopTime="0.00" timeLoss="1.67" rerouteNo="0" devices="tripinfo_SN.cv.13 routing_SN.cv.13" vType="cv" speedFactor="0.94" vaporized=""/>
    <tripinfo id="SE.cv.6" depart="98.00" departLane="-E3_0" departPos="5.10" departSpeed="22.87" departDelay="0.00" arrival="161.00" arrivalLane="E2_1" arrivalPos="508.36" arrivalSpeed="17.79" duration="63.00" routeLength="1004.51" waitingTime="0.00" waitingCount="0" stopTime="0.00" timeLoss="11.82" rerouteNo="0" devices="tripinfo_SE.cv.6 routing_SE.cv.6" vType="cv" speedFactor="1.14" vaporized=""/>
    <tripinfo id="ES.cv.2" depart="65.00" departLane="-E2_3" departPos="5.10" departSpeed="19.74" departDelay="0.00" arrival="163.00" arrivalLane="E3_1" arrivalPos="501.31" arrivalSpeed="25.02" duration="98.00" routeLength="1002.88" waitingTime="38.00" waitingCount="1" stopTime="0.00" timeLoss="52.26" rerouteNo="0" devices="tripinfo_ES.cv.2 routing_ES.cv.2" vType="cv" speedFactor="1.26" vaporized=""/>
    <tripinfo id="ES.cv.3" depart="68.00" departLane="-E2_2" departPos="5.10" departSpeed="15.88" departDelay="0.00" arrival="166.00" arrivalLane="E3_0" arrivalPos="501.31" arrivalSpeed="20.41" duration="98.00" routeLength="1002.88" waitingTime="30.00" waitingCount="1" stopTime="0.00" timeLoss="41.64" rerouteNo="0" devices="tripinfo_ES.cv.3 routing_ES.cv.3" vType="cv" speedFactor="1.01" vaporized=""/>
    <tripinfo id="SE.cv.5" depart="94.00" departLane="-E3_0" departPos="5.10" departSpeed="17.38" departDelay="0.00" arrival="166.00" arrivalLane="E2_0" arrivalPos="508.36" arrivalSpeed="13.52" duration="72.00" routeLength="1004.51" waitingTime="0.00" waitingCount="0" stopTime="0.00" timeLoss="5.18" rerouteNo="0" devices="tripinfo_SE.cv.5 routing_SE.cv.5" vType="cv" speedFactor="0.86" vaporized=""/>