<?xml version="1.0" encoding="UTF-8"?>

<!-- generated on 2023-01-30 12:11:38 by Eclipse SUMO sumo Version 1.13.0
<configuration xmlns:xsi="http://www.w3.org/2001/XMLSchema-instance" xsi:noNamespaceSchemaLocation="http://sumo.dlr.de/xsd/sumoConfiguration.xsd">

    <input>
        <net-file value="data/Eastway-Central.net.xml"/>
        <route-files value="data/cav80-offpeak.rou.xml"/>
        <additional-files value="data/Eastway-Central.add.xml"/>
    </input>

    <output>
        <tripinfo-output value="result\2023-01-30-12-04-30\46_tripinfo.xml"/>
    </output>

    <report>
        <no-warnings value="true"/>
        <no-step-log value="true"/>
    </report>

    <traci_server>
        <remote-port value="54252"/>
    </traci_server>

    <random_number>
        <seed value="45"/>
    </random_number>

</configuration>
-->

<tripinfos xmlns:xsi="http://www.w3.org/2001/XMLSchema-instance" xsi:noNamespaceSchemaLocation="http://sumo.dlr.de/xsd/tripinfo_file.xsd">
    <tripinfo id="WS.cv.0" depart="11.00" departLane="E0_0" departPos="5.10" departSpeed="16.32" departDelay="0.00" arrival="47.00" arrivalLane="E3_0" arrivalPos="501.31" arrivalSpeed="3.73" duration="36.00" routeLength="995.54" waitingTime="0.00" waitingCount="0" stopTime="0.00" timeLoss="5.68" rerouteNo="0" devices="tripinfo_WS.cv.0 routing_WS.cv.0" vType="cv" speedFactor="1.04" vaporized="teleport"/>
    <tripinfo id="BNS.0" depart="0.00" departLane="E1_1" departPos="12.10" departSpeed="20.12" departDelay="0.00" arrival="50.00" arrivalLane="E3_0" arrivalPos="501.31" arrivalSpeed="20.12" duration="50.00" routeLength="987.98" waitingTime="0.00" waitingCount="0" stopTime="0.00" timeLoss="0.19" rerouteNo="0" devices="tripinfo_BNS.0 routing_BNS.0" vType="bus" speedFactor="1.00" vaporized=""/>
    <tripinfo id="SN.cv.0" depart="3.00" departLane="-E3_1" departPos="5.10" departSpeed="19.89" departDelay="0.00" arrival="54.00" arrivalLane="-E1_0" arrivalPos="498.92" arrivalSpeed="19.89" duration="51.00" routeLength="995.07" waitingTime="0.00" waitingCount="0" stopTime="0.00" timeLoss="0.05" rerouteNo="0" devices="tripinfo_SN.cv.0 routing_SN.cv.0" vType="cv" speedFactor="0.99" vaporized=""/>
    <tripinfo id="NS.cv.1" depart="8.00" departLane="E1_1" departPos="5.10" departSpeed="20.55" departDelay="0.00" arrival="57.00" arrivalLane="E3_1" arrivalPos="501.31" arrivalSpeed="20.55" duration="49.00" routeLength="994.98" waitingTime="0.00" waitingCount="0" stopTime="0.00" timeLoss="0.08" rerouteNo="0" devices="tripinfo_NS.cv.1 routing_NS.cv.1" vType="cv" speedFactor="1.02" vaporized=""/>
    <tripinfo id="NS.cv.0" depart="2.00" departLane="E1_2" departPos="5.10" departSpeed="16.81" departDelay="0.00" arrival="62.00" arrivalLane="E3_0" arrivalPos="501.31" arrivalSpeed="16.81" duration="60.00" routeLength="994.98" waitingTime="0.00" waitingCount="0" stopTime="0.00" timeLoss="0.14" rerouteNo="0" devices="tripinfo_NS.cv.0 routing_NS.cv.0" vType="cv" speedFactor="0.84" vaporized=""/>
    <tripinfo id="SE.cv.0" depart="1.00" departLane="-E3_0" departPos="5.10" departSpeed="21.25" departDelay="0.00" arrival="63.00" arrivalLane="E2_0" arrivalPos="508.36" arrivalSpeed="16.53" duration="62.00" routeLength="1004.51" waitingTime="0.00" waitingCount="0" stopTime="0.00" timeLoss="7.13" rerouteNo="0" devices="tripinfo_SE.cv.0 routing_SE.cv.0" vType="cv" speedFactor="1.06" vaporized=""/>
    <tripinfo id="SN.cv.1" depart="6.00" departLane="-E3_2" departPos="5.10" departSpeed="18.00" departDelay="0.00" arrival="63.00" arrivalLane="-E1_0" arrivalPos="498.92" arrivalSpeed="18.00" duration="57.00" routeLength="995.07" waitingTime="0.00" waitingCount="0" stopTime="0.00" timeLoss="1.49" rerouteNo="0" devices="tripinfo_SN.cv.1 routing_SN.cv.1" vType="cv" speedFactor="0.89" vaporized=""/>
    <tripinfo id="SN.cv.2" depart="14.00" departLane="-E3_1" departPos="5.10" departSpeed="23.03" departDelay="0.00" arrival="63.00" arrivalLane="-E1_1" arrivalPos="498.92" arrivalSpeed="23.02" duration="49.00" routeLength="995.07" waitingTime="0.00" waitingCount="0" stopTime="0.00" timeLoss="5.58" rerouteNo="0" devices="tripinfo_SN.cv.2 routing_SN.cv.2" vType="cv" speedFactor="1.14" vaporized=""/>
    <tripinfo id="NS.cv.2" depart="12.00" departLane="E1_1" departPos="5.10" departSpeed="18.50" departDelay="0.00" arrival="67.00" arrivalLane="E3_0" arrivalPos="501.31" arrivalSpeed="18.49" duration="55.00" routeLength="994.98" waitingTime="0.00" waitingCount="0" stopTime="0.00" timeLoss="0.57" rerouteNo="0" devices="tripinfo_NS.cv.2 routing_NS.cv.2" vType="cv" speedFactor="0.92" vaporized=""/>
    <tripinfo id="ES.cv.0" depart="7.00" departLane="-E2_2" departPos="5.10" departSpeed="16.96" departDelay="0.00" arrival="74.00" arrivalLane="E3_1" arrivalPos="501.31" arrivalSpeed="21.81" duration="67.00" routeLength="1002.88" waitingTime="2.00" waitingCount="1" stopTime="0.00" timeLoss="13.70" rerouteNo="0" devices="tripinfo_ES.cv.0 routing_ES.cv.0" vType="cv" speedFactor="1.08" vaporized=""/>
    <tripinfo id="NW.cv.0" depart="11.00" departLane="E1_0" departPos="5.10" departSpeed="19.86" departDelay="0.00" arrival="75.00" arrivalLane="-E0_0" arrivalPos="500.03" arrivalSpeed="15.45" duration="64.00" routeLength="993.70" waitingTime="0.00" waitingCount="0" stopTime="0.00" timeLoss="6.30" rerouteNo="0" devices="tripinfo_NW.cv.0 routing_NW.cv.0" vType="cv" speedFactor="0.99" vaporized=""/>
    <tripinfo id="EW.cv.0" depart="7.00" departLane="-E2_0" departPos="5.10" departSpeed="16.55" departDelay="0.00" arrival="80.00" arrivalLane="-E0_0" arrivalPos="500.03" arrivalSpeed="16.54" duration="73.00" routeLength="1001.60" waitingTime="1.00" waitingCount="1" stopTime="0.00" timeLoss="12.11" rerouteNo="0" devices="tripinfo_EW.cv.0 routing_EW.cv.0" vType="cv" speedFactor="1.06" vaporized=""/>
    <tripinfo id="SE.cv.1" depart="13.00" departLane="-E3_0" departPos="5.10" departSpeed="20.90" departDelay="0.00" arrival="81.00" arrivalLane="E2_0" arrivalPos="508.36" arrivalSpeed="16.26" duration="68.00" routeLength="1004.51" waitingTime="1.00" waitingCount="1" stopTime="0.00" timeLoss="12.31" rerouteNo="0" devices="tripinfo_SE.cv.1 routing_SE.cv.1" vType="cv" speedFactor="1.04" vaporized=""/>
    <tripinfo id="NE.cv.0" depart="15.00" departLane="E1_3" departPos="5.10" departSpeed="20.09" departDelay="0.00" arrival="99.00" arrivalLane="E2_0" arrivalPos="508.36" arrivalSpeed="15.63" duration="84.00" routeLength="1002.03" waitingTime="15.00" waitingCount="1" stopTime="0.00" timeLoss="26.36" rerouteNo="0" devices="tripinfo_NE.cv.0 routing_NE.cv.0" vType="cv" speedFactor="1.00" vaporized=""/>
    <tripinfo id="SW.cv.1" depart="17.00" departLane="-E3_3" departPos="5.10" departSpeed="21.15" departDelay="0.00" arrival="99.00" arrivalLane="-E0_0" arrivalPos="500.03" arrivalSpeed="16.45" duration="82.00" routeLength="996.18" waitingTime="16.00" waitingCount="1" stopTime="0.00" timeLoss="27.41" rerouteNo="0" devices="tripinfo_SW.cv.1 routing_SW.cv.1" vType="cv" speedFactor="1.05" vaporized=""/>
    <tripinfo id="NE.cv.2" depart="35.00" departLane="E1_3" departPos="5.10" departSpeed="22.56" departDelay="0.00" arrival="101.00" arrivalLane="E2_1" arrivalPos="508.36" arrivalSpeed="17.55" duration="66.00" routeLength="1002.03" waitingTime="0.00" waitingCount="0" stopTime="0.00" timeLoss="14.72" rerouteNo="0" devices="tripinfo_NE.cv.2 routing_NE.cv.2" vType="cv" speedFactor="1.12" vaporized=""/>
    <tripinfo id="ES.cv.1" depart="42.00" departLane="-E2_3" departPos="5.10" departSpeed="15.42" departDelay="0.00" arrival="100.00" arrivalLane="E3_0" arrivalPos="501.31" arrivalSpeed="2.60" duration="58.00" routeLength="1002.88" waitingTime="17.00" waitingCount="1" stopTime="0.00" timeLoss="25.41" rerouteNo="0" devices="tripinfo_ES.cv.1 routing_ES.cv.1" vType="cv" speedFactor="0.99" vaporized="teleport"/>
    <tripinfo id="NE.cv.1" depart="32.00" departLane="E1_3" departPos="5.10" departSpeed="20.25" departDelay="0.00" arrival="102.00" arrivalLane="E2_0" arrivalPos="508.36" arrivalSpeed="15.68" duration="70.00" routeLength="1002.03" waitingTime="0.00" waitingCount="0" stopTime="0.00" timeLoss="12.95" rerouteNo="0" devices="tripinfo_NE.cv.1 routing_NE.cv.1" vType="cv" speedFactor="1.01" vaporized=""/>
    <tripinfo id="NS.cv.3" depart="22.00" departLane="E1_2" departPos="5.10" departSpeed="20.05" departDelay="0.00" arrival="103.00" arrivalLane="E3_0" arrivalPos="501.31" arrivalSpeed="20.05" duration="81.00" routeLength="994.98" waitingTime="19.00" waitingCount="1" stopTime="0.00" timeLoss="31.26" rerouteNo="0" devices="tripinfo_NS.cv.3 routing_NS.cv.3" vType="cv" speedFactor="1.00" vaporized=""/>
    <tripinfo id="SN.0" depart="19.00" departLane="-E3_2" departPos="5.10" departSpeed="19.00" departDelay="0.00" arrival="106.00" arrivalLane="-E1_0" arrivalPos="498.92" arrivalSpeed="19.00" duration="87.00" routeLength="995.07" waitingTime="23.00" waitingCount="1" stopTime="0.00" timeLoss="34.55" rerouteNo="0" devices="tripinfo_SN.0 routing_SN.0" vType="car" speedFactor="0.94" vaporized=""/>
    <tripinfo id="NS.cv.4" depart="25.00" departLane="E1_1" departPos="5.10" departSpeed="18.40" departDelay="0.00" arrival="106.00" arrivalLane="E3_0" arrivalPos="501.31" arrivalSpeed="18.27" duration="81.00" routeLength="994.98" waitingTime="14.00" waitingCount="1" stopTime="0.00" timeLoss="26.28" rerouteNo="0" devices="tripinfo_NS.cv.4 routing_NS.cv.4" vType="cv" speedFactor="0.91" vaporized=""/>
    <tripinfo id="NS.cv.5" depart="26.00" departLane="E1_2" departPos="5.10" departSpeed="20.04" departDelay="0.00" arrival="106.00" arrivalLane="E3_1" arrivalPos="501.31" arrivalSpeed="20.04" duration="80.00" routeLength="994.98" waitingTime="17.00" waitingCount="1" stopTime="0.00" timeLoss="30.08" rerouteNo="0" devices="tripinfo_NS.cv.5 routing_NS.cv.5" vType="cv" speedFactor="1.00" vaporized=""/>
    <tripinfo id="SN.cv.4" depart="27.00" departLane="-E3_1" departPos="5.10" departSpeed="20.78" departDelay="0.00" arrival="108.00" arrivalLane="-E1_1" arrivalPos="498.92" arrivalSpeed="20.78" duration="81.00" routeLength="995.07" waitingTime="18.00" waitingCount="1" stopTime="0.00" timeLoss="32.41" rerouteNo="0" devices="tripinfo_SN.cv.4 routing_SN.cv.4" vType="cv" speedFactor="1.03" vaporized=""/>
    <tripinfo id="NS.cv.6" depart="33.00" departLane="E1_1" departPos="5.10" departSpeed="19.14" departDelay="0.00" arrival="108.00" arrivalLane="E3_0" arrivalPos="501.31" arrivalSpeed="18.68" duration="75.00" routeLength="994.98" waitingTime="5.00" waitingCount="1" stopTime="0.00" timeLoss="22.80" rerouteNo="0" devices="tripinfo_NS.cv.6 routing_NS.cv.6" vType="cv" speedFactor="0.95" vaporized=""/>
    <tripinfo id="SW.cv.0" depart="4.00" departLane="-E3_3" departPos="5.10" departSpeed="14.70" departDelay="0.00" arrival="109.00" arrivalLane="-E0_0" arrivalPos="500.03" arrivalSpeed="11.44" duration="105.00" routeLength="996.18" waitingTime="18.00" waitingCount="1" stopTime="0.00" timeLoss="27.29" rerouteNo="0" devices="tripinfo_SW.cv.0 routing_SW.cv.0" vType="cv" speedFactor="0.73" vaporized=""/>
    <tripinfo id="SN.cv.3" depart="17.00" departLane="-E3_1" departPos="5.10" departSpeed="17.34" departDelay="0.00" arrival="109.00" arrivalLane="-E1_0" arrivalPos="498.92" arrivalSpeed="17.25" duration="92.00" routeLength="995.07" waitingTime="23.00" waitingCount="1" stopTime="0.00" timeLoss="34.33" rerouteNo="0" devices="tripinfo_SN.cv.3 routing_SN.cv.3" vType="cv" speedFactor="0.86" vaporized=""/>
    <tripinfo id="NS.cv.7" depart="46.00" departLane="E1_2" departPos="5.10" departSpeed="20.53" departDelay="0.00" arrival="109.00" arrivalLane="E3_1" arrivalPos="501.31" arrivalSpeed="20.29" duration="63.00" routeLength="994.98" waitingTime="0.00" waitingCount="0" stopTime="0.00" timeLoss="13.84" rerouteNo="0" devices="tripinfo_NS.cv.7 routing_NS.cv.7" vType="cv" speedFactor="1.02" vaporized=""/>
    <tripinfo id="SN.cv.5" depart="31.00" departLane="-E3_1" departPos="5.10" departSpeed="21.49" departDelay="0.00" arrival="110.00" arrivalLane="-E1_1" arrivalPos="498.92" arrivalSpeed="20.97" duration="79.00" routeLength="995.07" waitingTime="16.00" waitingCount="1" stopTime="0.00" timeLoss="32.38" rerouteNo="0" devices="tripinfo_SN.cv.5 routing_SN.cv.5" vType="cv" speedFactor="1.07" vaporized=""/>
    <tripinfo id="NW.cv.2" depart="48.00" departLane="E1_0" departPos="5.10" departSpeed="21.49" departDelay="0.00" arrival="110.00" arrivalLane="-E0_1" arrivalPos="500.03" arrivalSpeed="16.70" duration="62.00" routeLength="993.70" waitingTime="0.00" waitingCount="0" stopTime="0.00" timeLoss="9.02" rerouteNo="0" devices="tripinfo_NW.cv.2 routing_NW.cv.2" vType="cv" speedFactor="1.07" vaporized=""/>
    <tripinfo id="NS.0" depart="60.00" departLane="E1_1" departPos="5.10" departSpeed="20.60" departDelay="0.00" arrival="111.00" arrivalLane="E3_1" arrivalPos="501.31" arrivalSpeed="20.21" duration="51.00" routeLength="994.98" waitingTime="0.00" waitingCount="0" stopTime="0.00" timeLoss="2.68" rerouteNo="0" devices="tripinfo_NS.0 routing_NS.0" vType="car" speedFactor="1.02" vaporized=""/>
    <tripinfo id="SN.cv.7" depart="39.00" departLane="-E3_1" departPos="5.10" departSpeed="20.46" departDelay="0.00" arrival="113.00" arrivalLane="-E1_1" arrivalPos="498.92" arrivalSpeed="20.27" duration="74.00" routeLength="995.07" waitingTime="9.00" waitingCount="1" stopTime="0.00" timeLoss="24.84" rerouteNo="0" devices="tripinfo_SN.cv.7 routing_SN.cv.7" vType="cv" speedFactor="1.02" vaporized=""/>
    <tripinfo id="SN.1" depart="44.00" departLane="-E3_1" departPos="5.10" departSpeed="16.78" departDelay="0.00" arrival="113.00" arrivalLane="-E1_0" arrivalPos="498.92" arrivalSpeed="16.75" duration="69.00" routeLength="995.07" waitingTime="0.00" waitingCount="0" stopTime="0.00" timeLoss="8.78" rerouteNo="0" devices="tripinfo_SN.1 routing_SN.1" vType="car" speedFactor="0.83" vaporized=""/>
    <tripinfo id="SE.0" depart="47.00" departLane="-E3_0" departPos="5.10" departSpeed="20.04" departDelay="0.00" arrival="113.00" arrivalLane="E2_0" arrivalPos="508.36" arrivalSpeed="15.59" duration="66.00" routeLength="1004.51" waitingTime="0.00" waitingCount="0" stopTime="0.00" timeLoss="8.28" rerouteNo="0" devices="tripinfo_SE.0 routing_SE.0" vType="car" speedFactor="1.00" vaporized=""/>
    <tripinfo id="SN.cv.6" depart="37.00" departLane="-E3_2" departPos="5.10" departSpeed="19.63" departDelay="0.00" arrival="114.00" arrivalLane="-E1_0" arrivalPos="498.92" arrivalSpeed="17.75" duration="77.00" routeLength="995.07" waitingTime="10.00" waitingCount="1" stopTime="0.00" timeLoss="26.27" rerouteNo="0" devices="tripinfo_SN.cv.6 routing_SN.cv.6" vType="cv" speedFactor="0.98" vaporized=""/>
    <tripinfo id="NW.cv.1" depart="40.00" departLane="E1_0" departPos="5.10" departSpeed="17.28" departDelay="0.00" arrival="114.00" arrivalLane="-E0_0" arrivalPos="500.03" arrivalSpeed="13.44" duration="74.00" routeLength="993.70" waitingTime="0.00" waitingCount="0" stopTime="0.00" timeLoss="8.16" rerouteNo="0" devices="tripinfo_NW.cv.1 routing_NW.cv.1" vType="cv" speedFactor="0.86" vaporized=""/>
    <tripinfo id="SN.cv.8" depart="50.00" departLane="-E3_2" departPos="5.10" departSpeed="21.47" departDelay="0.00" arrival="115.00" arrivalLane="-E1_1" arrivalPos="498.92" arrivalSpeed="20.72" duration="65.00" routeLength="995.07" waitingTime="1.00" waitingCount="1" stopTime="0.00" timeLoss="18.29" rerouteNo="0" devices="tripinfo_SN.cv.8 routing_SN.cv.8" vType="cv" speedFactor="1.07" vaporized=""/>
    <tripinfo id="NS.cv.9" depart="62.00" departLane="E1_1" departPos="5.10" departSpeed="23.18" departDelay="0.00" arrival="115.00" arrivalLane="E3_1" arrivalPos="501.31" arrivalSpeed="22.97" duration="53.00" routeLength="994.98" waitingTime="0.00" waitingCount="0" stopTime="0.00" timeLoss="9.23" rerouteNo="0" devices="tripinfo_NS.cv.9 routing_NS.cv.9" vType="cv" speedFactor="1.15" vaporized=""/>
    <tripinfo id="SN.cv.9" depart="53.00" departLane="-E3_1" departPos="5.10" departSpeed="19.15" departDelay="0.00" arrival="116.00" arrivalLane="-E1_0" arrivalPos="498.92" arrivalSpeed="18.27" duration="63.00" routeLength="995.07" waitingTime="0.00" waitingCount="0" stopTime="0.00" timeLoss="11.01" rerouteNo="0" devices="tripinfo_SN.cv.9 routing_SN.cv.9" vType="cv" speedFactor="0.95" vaporized=""/>
    <tripinfo id="SN.cv.10" depart="60.00" departLane="-E3_2" departPos="5.10" departSpeed="19.24" departDelay="0.00" arrival="118.00" arrivalLane="-E1_1" arrivalPos="498.92" arrivalSpeed="19.14" duration="58.00" routeLength="995.07" waitingTime="0.00" waitingCount="0" stopTime="0.00" timeLoss="6.19" rerouteNo="0" devices="tripinfo_SN.cv.10 routing_SN.cv.10" vType="cv" speedFactor="0.96" vaporized=""/>
    <tripinfo id="SN.cv.11" depart="62.00" departLane="-E3_1" departPos="5.10" departSpeed="19.68" departDelay="0.00" arrival="120.00" arrivalLane="-E1_0" arrivalPos="498.92" arrivalSpeed="19.47" duration="58.00" routeLength="995.07" waitingTime="0.00" waitingCount="0" stopTime="0.00" timeLoss="7.01" rerouteNo="0" devices="tripinfo_SN.cv.11 routing_SN.cv.11" vType="cv" speedFactor="0.98" vaporized=""/>
    <tripinfo id="NS.cv.10" depart="63.00" departLane="E1_2" departPos="5.10" departSpeed="19.49" departDelay="0.00" arrival="120.00" arrivalLane="E3_1" arrivalPos="501.31" arrivalSpeed="19.49" duration="57.00" routeLength="994.98" waitingTime="0.00" waitingCount="0" stopTime="0.00" timeLoss="5.84" rerouteNo="0" devices="tripinfo_NS.cv.10 routing_NS.cv.10" vType="cv" speedFactor="0.97" vaporized=""/>
    <tripinfo id="NS.cv.8" depart="60.00" departLane="E1_2" departPos="5.10" departSpeed="15.59" departDelay="0.00" arrival="125.00" arrivalLane="E3_0" arrivalPos="501.31" arrivalSpeed="15.59" duration="65.00" routeLength="994.98" waitingTime="0.00" waitingCount="0" stopTime="0.00" timeLoss="0.33" rerouteNo="0" devices="tripinfo_NS.cv.8 routing_NS.cv.8" vType="cv" speedFactor="0.77" vaporized=""/>
    <tripinfo id="WN.cv.0" depart="43.00" departLane="E0_2" departPos="5.10" departSpeed="18.24" departDelay="0.00" arrival="126.00" arrivalLane="-E1_1" arrivalPos="498.92" arrivalSpeed="23.44" duration="83.00" routeLength="993.15" waitingTime="21.00" waitingCount="1" stopTime="0.00" timeLoss="33.66" rerouteNo="0" devices="tripinfo_WN.cv.0 routing_WN.cv.0" vType="cv" speedFactor="1.17" vaporized=""/>
    <tripinfo id="ES.cv.3" depart="62.00" departLane="-E2_3" departPos="5.10" departSpeed="18.39" departDelay="0.00" arrival="126.00" arrivalLane="E3_1" arrivalPos="501.31" arrivalSpeed="23.61" duration="64.00" routeLength="1002.88" waitingTime="1.00" waitingCount="1" stopTime="0.00" timeLoss="14.61" rerouteNo="0" devices="tripinfo_ES.cv.3 routing_ES.cv.3" vType="cv" speedFactor="1.18" vaporized=""/>
    <tripinfo id="WS.cv.1" depart="55.00" departLane="E0_0" departPos="5.10" departSpeed="16.27" departDelay="0.00" arrival="128.00" arrivalLane="E3_0" arrivalPos="501.31" arrivalSpeed="20.62" duration="73.00" routeLength="995.54" waitingTime="6.00" waitingCount="1" stopTime="0.00" timeLoss="18.33" rerouteNo="0" devices="tripinfo_WS.cv.1 routing_WS.cv.1" vType="cv" speedFactor="1.04" vaporized=""/>
    <tripinfo id="ES.0" depart="61.00" departLane="-E2_2" departPos="5.10" departSpeed="13.69" departDelay="0.00" arrival="133.00" arrivalLane="E3_1" arrivalPos="501.31" arrivalSpeed="17.60" duration="72.00" routeLength="1002.88" waitingTime="0.00" waitingCount="0" stopTime="0.00" timeLoss="6.84" rerouteNo="0" devices="tripinfo_ES.0 routing_ES.0" vType="car" speedFactor="0.87" vaporized=""/>
    <tripinfo id="ES.cv.2" depart="57.00" departLane="-E2_3" departPos="5.10" departSpeed="14.58" departDelay="0.00" arrival="134.00" arrivalLane="E3_0" arrivalPos="501.31" arrivalSpeed="18.08" duration="77.00" routeLength="1002.88" waitingTime="2.00" waitingCount="1" stopTime="0.00" timeLoss="14.96" rerouteNo="0" devices="tripinfo_ES.cv.2 routing_ES.cv.2" vType="cv" speedFactor="0.93" vaporized=""/>
    <tripinfo id="ES.cv.4" depart="68.00" departLane="-E2_3" departPos="5.10" departSpeed="14.60" departDelay="0.00" arrival="136.00" arrivalLane="E3_1" arrivalPos="501.31" arrivalSpeed="18.52" duration="68.00" routeLength="1002.88" waitingTime="0.00" waitingCount="0" stopTime="0.00" timeLoss="6.27" rerouteNo="0" devices="tripinfo_ES.cv.4 routing_ES.cv.4" vType="cv" speedFactor="0.93" vaporized=""/>
    <tripinfo id="EW.0" depart="57.00" departLane="-E2_1" departPos="5.10" departSpeed="18.05" departDelay="0.00" arrival="141.00" arrivalLane="-E0_0" arrivalPos="500.03" arrivalSpeed="18.05" duration="84.00" routeLength="1001.60" waitingTime="16.00" waitingCount="1" stopTime="0.00" timeLoss="27.67" rerouteNo="0" devices="tripinfo_EW.0 routing_EW.0" vType="car" speedFactor="1.15" vaporized=""/>
    <tripinfo id="WS.cv.2" depart="70.00" departLane="E0_0" departPos="5.10" departSpeed="15.78" departDelay="0.00" arrival="143.00" arrivalLane="E3_1" arrivalPos="501.31" arrivalSpeed="20.29" duration="73.00" routeLength="995.54" waitingTime="4.00" waitingCount="1" stopTime="0.00" timeLoss="16.95" rerouteNo="0" devices="tripinfo_WS.cv.2 routing_WS.cv.2" vType="cv" speedFactor="1.01" vaporized=""/>
    <tripinfo id="EW.cv.1" depart="29.00" departLane="-E2_1" departPos="5.10" departSpeed="14.91" departDelay="0.00" arrival="146.00" arrivalLane="-E0_0" arrivalPos="500.03" arrivalSpeed="14.91" duration="117.00" routeLength="1001.60" waitingTime="39.00" waitingCount="1" stopTime="0.00" timeLoss="49.62" rerouteNo="0" devices="tripinfo_EW.cv.1 routing_EW.cv.1" vType="cv" speedFactor="0.95" vaporized=""/>
    <tripinfo id="EW.cv.3" depart="64.00" departLane="-E2_1" departPos="5.10" departSpeed="16.08" departDelay="0.00" arrival="146.00" arrivalLane="-E0_1" arrivalPos="500.03" arrivalSpeed="16.08" duration="82.00" routeLength="1001.60" waitingTime="8.00" waitingCount="1" stopTime="0.00" timeLoss="19.55" rerouteNo="0" devices="tripinfo_EW.cv.3 routing_EW.cv.3" vType="cv" speedFactor="1.03" vaporized=""/>
    <tripinfo id="EW.cv.5" depart="83.00" departLane="-E2_1" departPos="5.10" departSpeed="18.27" departDelay="0.00" arrival="148.00" arrivalLane="-E0_1" arrivalPos="500.03" arrivalSpeed="17.51" duration="65.00" routeLength="1001.60" waitingTime="0.00" waitingCount="0" stopTime="0.00" timeLoss="10.03" rerouteNo="0" devices="tripinfo_EW.cv.5 routing_EW.cv.5" vType="cv" speedFactor="1.17" vaporized=""/>
    <tripinfo id="EW.cv.2" depart="61.00" departLane="-E2_0" departPos="5.10" departSpeed="14.95" departDelay="0.00" arrival="150.00" arrivalLane="-E0_0" arrivalPos="500.03" arrivalSpeed="14.92" duration="89.00" routeLength="1001.60" waitingTime="9.00" waitingCount="1" stopTime="0.00" timeLoss="21.00" rerouteNo="0" devices="tripinfo_EW.cv.2 routing_EW.cv.2" vType="cv" speedFactor="0.95" vaporized=""/>
    <tripinfo id="WE.cv.0" depart="31.00" departLane="E0_1" departPos="5.10" departSpeed="14.23" departDelay="0.00" arrival="151.00" arrivalLane="E2_1" arrivalPos="508.36" arrivalSpeed="14.23" duration="120.00" routeLength="1002.59" waitingTime="39.00" waitingCount="1" stopTime="0.00" timeLoss="48.90" rerouteNo="0" devices="tripinfo_WE.cv.0 routing_WE.cv.0" vType="cv" speedFactor="0.91" vaporized=""/>
    <tripinfo id="EW.cv.4" depart="76.00" departLane="-E2_0" departPos="5.10" departSpeed="17.17" departDelay="0.00" arrival="151.00" arrivalLane="-E0_1" arrivalPos="500.03" arrivalSpeed="16.97" duration="75.00" routeLength="1001.60" waitingTime="0.00" waitingCount="0" stopTime="0.00" timeLoss="15.90" rerouteNo="0" devices="tripinfo_EW.cv.4 routing_EW.cv.4" vType="cv" speedFactor="1.10" vaporized=""/>
    <tripinfo id="WE.cv.1" depart="53.00" departLane="E0_1" departPos="5.10" departSpeed="13.75" departDelay="0.00" arrival="152.00" arrivalLane="E2_0" arrivalPos="508.36" arrivalSpeed="13.75" duration="99.00" routeLength="1002.59" waitingTime="11.00" waitingCount="2" stopTime="0.00" timeLoss="25.59" rerouteNo="0" devices="tripinfo_WE.cv.1 routing_WE.cv.1" vType="cv" speedFactor="0.88" vaporized=""/>
    <tripinfo id="WE.cv.2" depart="63.00" departLane="E0_1" departPos="5.10" departSpeed="15.46" departDelay="0.00" arrival="153.00" arrivalLane="E2_1" arrivalPos="508.36" arrivalSpeed="15.14" duration="90.00" routeLength="1002.59" waitingTime="11.00" waitingCount="1" stopTime="0.00" timeLoss="24.98" rerouteNo="0" devices="tripinfo_WE.cv.2 routing_WE.cv.2" vType="cv" speedFactor="0.99" vaporized=""/>
    <tripinfo id="SN.cv.12" depart="73.00" departLane="-E3_1" departPos="5.10" departSpeed="21.54" departDelay="0.00" arrival="157.00" arrivalLane="-E1_0" arrivalPos="498.92" arrivalSpeed="21.54" duration="84.00" routeLength="995.07" waitingTime="24.00" waitingCount="1" stopTime="0.00" timeLoss="37.17" rerouteNo="0" devices="tripinfo_SN.cv.12 routing_SN.cv.12" vType="cv" speedFactor="1.07" vaporized=""/>
    <tripinfo id="SN.3" depart="79.00" departLane="-E3_2" departPos="5.10" departSpeed="22.57" departDelay="0.00" arrival="159.00" arrivalLane="-E1_1" arrivalPos="498.92" arrivalSpeed="22.57" duration="80.00" routeLength="995.07" waitingTime="21.00" waitingCount="1" stopTime="0.00" timeLoss="35.25" rerouteNo="0" devices="tripinfo_SN.3 routing_SN.3" vType="car" speedFactor="1.12" vaporized=""/>
    <tripinfo id="SN.2" depart="76.00" departLane="-E3_1" departPos="5.10" departSpeed="19.25" departDelay="0.00" arrival="160.00" arrivalLane="-E1_0" arrivalPos="498.92" arrivalSpeed="19.16" duration="84.00" routeLength="995.07" waitingTime="19.00" waitingCount="1" stopTime="0.00" timeLoss="31.44" rerouteNo="0" devices="tripinfo_SN.2 routing_SN.2" vType="car" speedFactor="0.96" vaporized=""/>
    <tripinfo id="WS.cv.3" depart="100.00" departLane="E0_0" departPos="5.10" departSpeed="16.57" departDelay="0.00" arrival="160.00" arrivalLane="E3_1" arrivalPos="501.31" arrivalSpeed="21.30" duration="60.00" routeLength="995.54" waitingTime="0.00" waitingCount="0" stopTime="0.00" timeLoss="6.43" rerouteNo="0" devices="tripinfo_WS.cv.3 routing_WS.cv.3" vType="cv" speedFactor="1.06" vaporized=""/>
    <tripinfo id="SN.cv.13" depart="83.00" departLane="-E3_1" departPos="5.10" departSpeed="24.12" departDelay="0.00" arrival="161.00" arrivalLane="-E1_1" arrivalPos="498.92" arrivalSpeed="22.78" duration="78.00" routeLength="995.07" waitingTime="11.00" waitingCount="2" stopTime="0.00" timeLoss="35.87" rerouteNo="0" devices="tripinfo_SN.cv.13 routing_SN.cv.13" vType="cv" speedFactor="1.20" vaporized=""/>
    <tripinfo id="ES.cv.6" depart="121.00" departLane="-E2_3" departPos="5.10" departSpeed="15.10" departDelay="0.00" arrival="160.00" arrivalLane="E3_0" arrivalPos="501.31" arrivalSpeed="3.55" duration="39.00" routeLength="1002.88" waitingTime="0.00" waitingCount="0" stopTime="0.00" timeLoss="5.74" rerouteNo="0" devices="tripinfo_ES.cv.6 routing_ES.cv.6" vType="cv" speedFactor="0.96" vaporized="teleport"/>
    <tripinfo id="SN.4" depart="105.00" departLane="-E3_1" departPos="5.10" departSpeed="21.11" departDelay="0.00" arrival="163.00" arrivalLane="-E1_1" arrivalPos="498.92" arrivalSpeed="20.66" duration="58.00" routeLength="995.07" waitingTime="0.00" waitingCount="0" stopTime="0.00" timeLoss="10.26" rerouteNo="0" devices="tripinfo_SN.4 routing_SN.4" vType="car" speedFactor="1.05" vaporized=""/>
    <tripinfo id="SN.cv.14" depart="110.00" departLane="-E3_1" departPos="5.10" departSpeed="25.98" departDelay="0.00" arrival="164.00" arrivalLane="-E1_1" arrivalPos="498.92" arrivalSpeed="21.56" duration="54.00" routeLength="995.07" waitingTime="0.00" waitingCount="0" stopTime="0.00" timeLoss="15.67" rerouteNo="0" devices="tripinfo_SN.cv.14 routing_SN.cv.14" vType="cv" speedFactor="1.29" vaporized=""/>
    <tripinfo id="WS.cv.5" depart="126.00" departLane="E0_0" departPos="5.10" departSpeed="15.26" departDelay="0.00" arrival="164.00" arrivalLane="E3_0" arrivalPos="501.31" arrivalSpeed="4.79" duration="38.00" routeLength="995.54" waitingTime="0.00" waitingCount="0" stopTime="0.00" timeLoss="5.54" rerouteNo="0" devices="tripinfo_WS.cv.5 routing_WS.cv.5" vType="cv" speedFactor="0.98" vaporized="teleport"/>
    <tripinfo id="SW.cv.2" depart="80.00" departLane="-E3_3" departPos="5.10" departSpeed="20.51" departDelay="0.00" arrival="166.00" arrivalLane="-E0_0" arrivalPos="500.03" arrivalSpeed="15.96" duration="86.00" routeLength="996.18" waitingTime="18.00" waitingCount="1" stopTime="0.00" timeLoss="29.99" rerouteNo="0" devices="tripinfo_SW.cv.2 routing_SW.cv.2" vType="cv" speedFactor="1.02" vaporized=""/>
    <tripinfo id="SN.cv.15" depart="112.00" departLane="-E3_1" departPos="5.10" departSpeed="19.56" departDelay="0.00" arrival="167.00" arrivalLane="-E1_0" arrivalPos="498.92" arrivalSpeed="19.56" duration="55.00" routeLength="995.07" waitingTime="0.00" waitingCount="0" stopTime="0.00" timeLoss="3.89" rerouteNo="0" devices="tripinfo_SN.cv.15 routing_SN.cv.15" vType="cv" speedFactor="0.97" vaporized=""/>
    <tripinfo id="NS.1" depart="67.00" departLane="E1_1" departPos="5.10" departSpeed="22.07" departDelay="0.00" arrival="168.00" arrivalLane="E3_0" arrivalPos="501.31" arrivalSpeed="22.06" duration="101.00" routeLength="994.98" waitingTime="38.00" waitingCount="1" stopTime="0.00" timeLoss="55.01" rerouteNo="0" devices="tripinfo_NS.1 routing_NS.1" vType="car" speedFactor="1.10" vaporized=""/>
    <tripinfo id="SW.0" depart="59.00" departLane="-E3_3" departPos="5.10" departSpeed="16.81" departDelay="0.00" arrival="170.00" arrivalLane="-E0_0" arrivalPos="500.03" arrivalSpeed="13.07" duration="111.00" routeLength="996.18" waitingTime="33.00" waitingCount="1" stopTime="0.00" timeLoss="42.92" rerouteNo="0" devices="tripinfo_SW.0 routing_SW.0" vType="car" speedFactor="0.84" vaporized=""/>
    <tripinfo id="NS.cv.11" depart="78.00" departLane="E1_1" departPos="5.10" departSpeed="18.70" departDelay="0.00" arrival="171.00" arrivalLane="E3_0" arrivalPos="501.31" arrivalSpeed="18.67" duration="93.00" routeLength="994.98" waitingTime="27.00" waitingCount="1" stopTime="0.00" timeLoss="39.63" rerouteNo="0" devices="tripinfo_NS.cv.11 routing_NS.cv.11" vType="cv" speedFactor="0.93" vaporized=""/>