<?xml version="1.0" encoding="UTF-8"?>

<!-- generated on 2023-01-30 12:11:57 by Eclipse SUMO sumo Version 1.13.0
<configuration xmlns:xsi="http://www.w3.org/2001/XMLSchema-instance" xsi:noNamespaceSchemaLocation="http://sumo.dlr.de/xsd/sumoConfiguration.xsd">

    <input>
        <net-file value="data/Eastway-Central.net.xml"/>
        <route-files value="data/cav80-offpeak.rou.xml"/>
        <additional-files value="data/Eastway-Central.add.xml"/>
    </input>

    <output>
        <tripinfo-output value="result\2023-01-30-12-04-30\48_tripinfo.xml"/>
    </output>

    <report>
        <no-warnings value="true"/>
        <no-step-log value="true"/>
    </report>

    <traci_server>
        <remote-port value="54262"/>
    </traci_server>

    <random_number>
        <seed value="47"/>
    </random_number>

</configuration>
-->

<tripinfos xmlns:xsi="http://www.w3.org/2001/XMLSchema-instance" xsi:noNamespaceSchemaLocation="http://sumo.dlr.de/xsd/tripinfo_file.xsd">
    <tripinfo id="SN.cv.0" depart="2.00" departLane="-E3_1" departPos="5.10" departSpeed="23.43" departDelay="0.00" arrival="45.00" arrivalLane="-E1_0" arrivalPos="498.92" arrivalSpeed="23.43" duration="43.00" routeLength="995.07" waitingTime="0.00" waitingCount="0" stopTime="0.00" timeLoss="0.11" rerouteNo="0" devices="tripinfo_SN.cv.0 routing_SN.cv.0" vType="cv" speedFactor="1.16" vaporized=""/>
    <tripinfo id="BNS.0" depart="0.00" departLane="E1_1" departPos="12.10" departSpeed="20.12" departDelay="0.00" arrival="50.00" arrivalLane="E3_0" arrivalPos="501.31" arrivalSpeed="20.12" duration="50.00" routeLength="987.98" waitingTime="0.00" waitingCount="0" stopTime="0.00" timeLoss="0.19" rerouteNo="0" devices="tripinfo_BNS.0 routing_BNS.0" vType="bus" speedFactor="1.00" vaporized=""/>
    <tripinfo id="NS.cv.0" depart="2.00" departLane="E1_2" departPos="5.10" departSpeed="17.17" departDelay="0.00" arrival="61.00" arrivalLane="E3_0" arrivalPos="501.31" arrivalSpeed="17.17" duration="59.00" routeLength="994.98" waitingTime="0.00" waitingCount="0" stopTime="0.00" timeLoss="0.17" rerouteNo="0" devices="tripinfo_NS.cv.0 routing_NS.cv.0" vType="cv" speedFactor="0.85" vaporized=""/>
    <tripinfo id="WN.0" depart="1.00" departLane="E0_2" departPos="5.10" departSpeed="16.52" departDelay="0.00" arrival="67.00" arrivalLane="-E1_0" arrivalPos="498.92" arrivalSpeed="21.24" duration="66.00" routeLength="993.15" waitingTime="0.00" waitingCount="0" stopTime="0.00" timeLoss="12.20" rerouteNo="0" devices="tripinfo_WN.0 routing_WN.0" vType="car" speedFactor="1.06" vaporized=""/>
    <tripinfo id="WE.cv.0" depart="9.00" departLane="E0_0" departPos="5.10" departSpeed="16.83" departDelay="0.00" arrival="71.00" arrivalLane="E2_0" arrivalPos="508.36" arrivalSpeed="16.83" duration="62.00" routeLength="1002.59" waitingTime="0.00" waitingCount="0" stopTime="0.00" timeLoss="2.42" rerouteNo="0" devices="tripinfo_WE.cv.0 routing_WE.cv.0" vType="cv" speedFactor="1.08" vaporized=""/>
    <tripinfo id="EW.0" depart="9.00" departLane="-E2_0" departPos="5.10" departSpeed="14.48" departDelay="0.00" arrival="87.00" arrivalLane="-E0_0" arrivalPos="500.03" arrivalSpeed="14.48" duration="78.00" routeLength="1001.60" waitingTime="0.00" waitingCount="0" stopTime="0.00" timeLoss="7.88" rerouteNo="0" devices="tripinfo_EW.0 routing_EW.0" vType="car" speedFactor="0.93" vaporized=""/>
    <tripinfo id="ES.cv.1" depart="28.00" departLane="-E2_3" departPos="5.10" departSpeed="13.96" departDelay="0.00" arrival="87.00" arrivalLane="E3_0" arrivalPos="501.31" arrivalSpeed="2.60" duration="59.00" routeLength="1002.88" waitingTime="15.00" waitingCount="1" stopTime="0.00" timeLoss="23.01" rerouteNo="0" devices="tripinfo_ES.cv.1 routing_ES.cv.1" vType="cv" speedFactor="0.89" vaporized="teleport"/>
    <tripinfo id="EW.cv.0" depart="30.00" departLane="-E2_0" departPos="5.10" departSpeed="12.87" departDelay="0.00" arrival="87.00" arrivalLane="-E0_0" arrivalPos="500.03" arrivalSpeed="2.60" duration="57.00" routeLength="1001.60" waitingTime="10.00" waitingCount="1" stopTime="0.00" timeLoss="17.90" rerouteNo="0" devices="tripinfo_EW.cv.0 routing_EW.cv.0" vType="cv" speedFactor="0.82" vaporized="teleport"/>
    <tripinfo id="SE.cv.0" depart="30.00" departLane="-E3_0" departPos="5.10" departSpeed="22.80" departDelay="0.00" arrival="88.00" arrivalLane="E2_0" arrivalPos="508.36" arrivalSpeed="17.73" duration="58.00" routeLength="1004.51" waitingTime="0.00" waitingCount="0" stopTime="0.00" timeLoss="6.63" rerouteNo="0" devices="tripinfo_SE.cv.0 routing_SE.cv.0" vType="cv" speedFactor="1.13" vaporized=""/>
    <tripinfo id="WS.cv.0" depart="15.00" departLane="E0_0" departPos="5.10" departSpeed="13.01" departDelay="0.00" arrival="89.00" arrivalLane="E3_0" arrivalPos="501.31" arrivalSpeed="16.72" duration="74.00" routeLength="995.54" waitingTime="0.00" waitingCount="0" stopTime="0.00" timeLoss="5.55" rerouteNo="0" devices="tripinfo_WS.cv.0 routing_WS.cv.0" vType="cv" speedFactor="0.83" vaporized=""/>
    <tripinfo id="EW.1" depart="27.00" departLane="-E2_1" departPos="5.10" departSpeed="16.37" departDelay="0.00" arrival="90.00" arrivalLane="-E0_1" arrivalPos="500.03" arrivalSpeed="16.37" duration="63.00" routeLength="1001.60" waitingTime="0.00" waitingCount="0" stopTime="0.00" timeLoss="0.89" rerouteNo="0" devices="tripinfo_EW.1 routing_EW.1" vType="car" speedFactor="1.05" vaporized=""/>
    <tripinfo id="WS.cv.2" depart="45.00" departLane="E0_0" departPos="5.10" departSpeed="18.80" departDelay="0.00" arrival="90.00" arrivalLane="E3_0" arrivalPos="501.31" arrivalSpeed="5.11" duration="45.00" routeLength="995.54" waitingTime="8.00" waitingCount="1" stopTime="0.00" timeLoss="18.66" rerouteNo="0" devices="tripinfo_WS.cv.2 routing_WS.cv.2" vType="cv" speedFactor="1.20" vaporized="teleport"/>
    <tripinfo id="SN.0" depart="19.00" departLane="-E3_2" departPos="5.10" departSpeed="19.47" departDelay="0.00" arrival="96.00" arrivalLane="-E1_0" arrivalPos="498.92" arrivalSpeed="19.47" duration="77.00" routeLength="995.07" waitingTime="13.00" waitingCount="1" stopTime="0.00" timeLoss="25.27" rerouteNo="0" devices="tripinfo_SN.0 routing_SN.0" vType="car" speedFactor="0.97" vaporized=""/>
    <tripinfo id="NS.cv.2" depart="31.00" departLane="E1_1" departPos="5.10" departSpeed="19.71" departDelay="0.00" arrival="96.00" arrivalLane="E3_1" arrivalPos="501.31" arrivalSpeed="19.71" duration="65.00" routeLength="994.98" waitingTime="2.00" waitingCount="1" stopTime="0.00" timeLoss="13.75" rerouteNo="0" devices="tripinfo_NS.cv.2 routing_NS.cv.2" vType="cv" speedFactor="0.98" vaporized=""/>
    <tripinfo id="SN.cv.1" depart="22.00" departLane="-E3_2" departPos="5.10" departSpeed="18.55" departDelay="0.00" arrival="97.00" arrivalLane="-E1_1" arrivalPos="498.92" arrivalSpeed="18.55" duration="75.00" routeLength="995.07" waitingTime="9.00" waitingCount="1" stopTime="0.00" timeLoss="20.81" rerouteNo="0" devices="tripinfo_SN.cv.1 routing_SN.cv.1" vType="cv" speedFactor="0.92" vaporized=""/>
    <tripinfo id="NS.cv.1" depart="24.00" departLane="E1_2" departPos="5.10" departSpeed="18.80" departDelay="0.00" arrival="97.00" arrivalLane="E3_0" arrivalPos="501.31" arrivalSpeed="18.79" duration="73.00" routeLength="994.98" waitingTime="8.00" waitingCount="1" stopTime="0.00" timeLoss="19.46" rerouteNo="0" devices="tripinfo_NS.cv.1 routing_NS.cv.1" vType="cv" speedFactor="0.93" vaporized=""/>
    <tripinfo id="NS.cv.3" depart="36.00" departLane="E1_1" departPos="5.10" departSpeed="24.28" departDelay="0.00" arrival="97.00" arrivalLane="E3_1" arrivalPos="501.31" arrivalSpeed="21.12" duration="61.00" routeLength="994.98" waitingTime="1.00" waitingCount="1" stopTime="0.00" timeLoss="19.97" rerouteNo="0" devices="tripinfo_NS.cv.3 routing_NS.cv.3" vType="cv" speedFactor="1.21" vaporized=""/>
    <tripinfo id="SN.cv.2" depart="23.00" departLane="-E3_1" departPos="5.10" departSpeed="16.13" departDelay="0.00" arrival="99.00" arrivalLane="-E1_1" arrivalPos="498.92" arrivalSpeed="19.72" duration="76.00" routeLength="995.07" waitingTime="9.00" waitingCount="1" stopTime="0.00" timeLoss="26.93" rerouteNo="0" devices="tripinfo_SN.cv.2 routing_SN.cv.2" vType="cv" speedFactor="1.01" vaporized=""/>
    <tripinfo id="NS.cv.4" depart="39.00" departLane="E1_1" departPos="5.10" departSpeed="19.60" departDelay="0.00" arrival="99.00" arrivalLane="E3_0" arrivalPos="501.31" arrivalSpeed="19.20" duration="60.00" routeLength="994.98" waitingTime="0.00" waitingCount="0" stopTime="0.00" timeLoss="9.20" rerouteNo="0" devices="tripinfo_NS.cv.4 routing_NS.cv.4" vType="cv" speedFactor="0.97" vaporized=""/>
    <tripinfo id="SN.1" depart="22.00" departLane="-E3_1" departPos="5.10" departSpeed="18.62" departDelay="0.00" arrival="100.00" arrivalLane="-E1_0" arrivalPos="498.92" arrivalSpeed="18.58" duration="78.00" routeLength="995.07" waitingTime="11.00" waitingCount="1" stopTime="0.00" timeLoss="23.81" rerouteNo="0" devices="tripinfo_SN.1 routing_SN.1" vType="car" speedFactor="0.93" vaporized=""/>
    <tripinfo id="NS.cv.5" depart="41.00" departLane="E1_2" departPos="5.10" departSpeed="21.11" departDelay="0.00" arrival="100.00" arrivalLane="E3_1" arrivalPos="501.31" arrivalSpeed="20.79" duration="59.00" routeLength="994.98" waitingTime="0.00" waitingCount="0" stopTime="0.00" timeLoss="11.30" rerouteNo="0" devices="tripinfo_NS.cv.5 routing_NS.cv.5" vType="cv" speedFactor="1.05" vaporized=""/>
    <tripinfo id="NS.cv.6" depart="42.00" departLane="E1_1" departPos="5.10" departSpeed="19.81" departDelay="0.00" arrival="102.00" arrivalLane="E3_0" arrivalPos="501.31" arrivalSpeed="19.63" duration="60.00" routeLength="994.98" waitingTime="0.00" waitingCount="0" stopTime="0.00" timeLoss="9.73" rerouteNo="0" devices="tripinfo_NS.cv.6 routing_NS.cv.6" vType="cv" speedFactor="0.98" vaporized=""/>
    <tripinfo id="NW.cv.0" depart="39.00" departLane="E1_0" departPos="5.10" departSpeed="20.28" departDelay="0.00" arrival="103.00" arrivalLane="-E0_0" arrivalPos="500.03" arrivalSpeed="15.78" duration="64.00" routeLength="993.70" waitingTime="0.00" waitingCount="0" stopTime="0.00" timeLoss="7.00" rerouteNo="0" devices="tripinfo_NW.cv.0 routing_NW.cv.0" vType="cv" speedFactor="1.01" vaporized=""/>
    <tripinfo id="NS.cv.7" depart="46.00" departLane="E1_2" departPos="5.10" departSpeed="20.94" departDelay="0.00" arrival="103.00" arrivalLane="E3_0" arrivalPos="501.31" arrivalSpeed="20.75" duration="57.00" routeLength="994.98" waitingTime="0.00" waitingCount="0" stopTime="0.00" timeLoss="8.84" rerouteNo="0" devices="tripinfo_NS.cv.7 routing_NS.cv.7" vType="cv" speedFactor="1.04" vaporized=""/>
    <tripinfo id="NS.cv.8" depart="50.00" departLane="E1_1" departPos="5.10" departSpeed="18.74" departDelay="0.00" arrival="106.00" arrivalLane="E3_0" arrivalPos="501.31" arrivalSpeed="18.67" duration="56.00" routeLength="994.98" waitingTime="0.00" waitingCount="0" stopTime="0.00" timeLoss="2.50" rerouteNo="0" devices="tripinfo_NS.cv.8 routing_NS.cv.8" vType="cv" speedFactor="0.93" vaporized=""/>
    <tripinfo id="NS.cv.9" depart="51.00" departLane="E1_2" departPos="5.10" departSpeed="18.83" departDelay="0.00" arrival="107.00" arrivalLane="E3_1" arrivalPos="501.31" arrivalSpeed="18.82" duration="56.00" routeLength="994.98" waitingTime="0.00" waitingCount="0" stopTime="0.00" timeLoss="2.64" rerouteNo="0" devices="tripinfo_NS.cv.9 routing_NS.cv.9" vType="cv" speedFactor="0.94" vaporized=""/>
    <tripinfo id="NW.cv.1" depart="47.00" departLane="E1_0" departPos="5.10" departSpeed="18.93" departDelay="0.00" arrival="114.00" arrivalLane="-E0_0" arrivalPos="500.03" arrivalSpeed="14.73" duration="67.00" routeLength="993.70" waitingTime="0.00" waitingCount="0" stopTime="0.00" timeLoss="5.95" rerouteNo="0" devices="tripinfo_NW.cv.1 routing_NW.cv.1" vType="cv" speedFactor="0.94" vaporized=""/>
    <tripinfo id="WS.cv.1" depart="23.00" departLane="E0_0" departPos="5.10" departSpeed="14.26" departDelay="0.00" arrival="117.00" arrivalLane="E3_0" arrivalPos="501.31" arrivalSpeed="18.34" duration="94.00" routeLength="995.54" waitingTime="18.00" waitingCount="3" stopTime="0.00" timeLoss="31.86" rerouteNo="0" devices="tripinfo_WS.cv.1 routing_WS.cv.1" vType="cv" speedFactor="0.91" vaporized=""/>
    <tripinfo id="EW.2" depart="38.00" departLane="-E2_1" departPos="5.10" departSpeed="18.76" departDelay="0.00" arrival="117.00" arrivalLane="-E0_0" arrivalPos="500.03" arrivalSpeed="18.59" duration="79.00" routeLength="1001.60" waitingTime="14.00" waitingCount="1" stopTime="0.00" timeLoss="25.45" rerouteNo="0" devices="tripinfo_EW.2 routing_EW.2" vType="car" speedFactor="1.20" vaporized=""/>
    <tripinfo id="ES.cv.0" depart="12.00" departLane="-E2_2" departPos="5.10" departSpeed="13.59" departDelay="0.00" arrival="119.00" arrivalLane="E3_0" arrivalPos="501.31" arrivalSpeed="17.47" duration="107.00" routeLength="1002.88" waitingTime="30.00" waitingCount="1" stopTime="0.00" timeLoss="40.47" rerouteNo="0" devices="tripinfo_ES.cv.0 routing_ES.cv.0" vType="cv" speedFactor="0.87" vaporized=""/>
    <tripinfo id="ES.cv.2" depart="31.00" departLane="-E2_2" departPos="5.10" departSpeed="16.55" departDelay="0.00" arrival="120.00" arrivalLane="E3_1" arrivalPos="501.31" arrivalSpeed="20.27" duration="89.00" routeLength="1002.88" waitingTime="17.00" waitingCount="1" stopTime="0.00" timeLoss="34.79" rerouteNo="0" devices="tripinfo_ES.cv.2 routing_ES.cv.2" vType="cv" speedFactor="1.06" vaporized=""/>
    <tripinfo id="ES.cv.4" depart="41.00" departLane="-E2_2" departPos="5.10" departSpeed="17.64" departDelay="0.00" arrival="120.00" arrivalLane="E3_0" arrivalPos="501.31" arrivalSpeed="16.89" duration="79.00" routeLength="1002.88" waitingTime="10.00" waitingCount="1" stopTime="0.00" timeLoss="28.35" rerouteNo="0" devices="tripinfo_ES.cv.4 routing_ES.cv.4" vType="cv" speedFactor="1.13" vaporized=""/>
    <tripinfo id="ES.cv.3" depart="35.00" departLane="-E2_3" departPos="5.10" departSpeed="16.26" departDelay="0.00" arrival="122.00" arrivalLane="E3_1" arrivalPos="501.31" arrivalSpeed="19.89" duration="87.00" routeLength="1002.88" waitingTime="15.00" waitingCount="1" stopTime="0.00" timeLoss="31.85" rerouteNo="0" devices="tripinfo_ES.cv.3 routing_ES.cv.3" vType="cv" speedFactor="1.04" vaporized=""/>
    <tripinfo id="EW.cv.1" depart="40.00" departLane="-E2_0" departPos="5.10" departSpeed="16.92" departDelay="0.00" arrival="122.00" arrivalLane="-E0_1" arrivalPos="500.03" arrivalSpeed="16.92" duration="82.00" routeLength="1001.60" waitingTime="10.00" waitingCount="1" stopTime="0.00" timeLoss="21.99" rerouteNo="0" devices="tripinfo_EW.cv.1 routing_EW.cv.1" vType="cv" speedFactor="1.08" vaporized=""/>
    <tripinfo id="NW.0" depart="52.00" departLane="E1_0" departPos="5.10" departSpeed="19.63" departDelay="0.00" arrival="123.00" arrivalLane="-E0_0" arrivalPos="500.03" arrivalSpeed="15.26" duration="71.00" routeLength="993.70" waitingTime="0.00" waitingCount="0" stopTime="0.00" timeLoss="12.14" rerouteNo="0" devices="tripinfo_NW.0 routing_NW.0" vType="car" speedFactor="0.98" vaporized=""/>
    <tripinfo id="WS.cv.3" depart="60.00" departLane="E0_0" departPos="5.10" departSpeed="16.04" departDelay="0.00" arrival="124.00" arrivalLane="E3_1" arrivalPos="501.31" arrivalSpeed="19.77" duration="64.00" routeLength="995.54" waitingTime="0.00" waitingCount="0" stopTime="0.00" timeLoss="8.58" rerouteNo="0" devices="tripinfo_WS.cv.3 routing_WS.cv.3" vType="cv" speedFactor="1.02" vaporized=""/>
    <tripinfo id="EW.cv.2" depart="57.00" departLane="-E2_1" departPos="5.10" departSpeed="16.37" departDelay="0.00" arrival="125.00" arrivalLane="-E0_1" arrivalPos="500.03" arrivalSpeed="16.25" duration="68.00" routeLength="1001.60" waitingTime="0.00" waitingCount="0" stopTime="0.00" timeLoss="6.20" rerouteNo="0" devices="tripinfo_EW.cv.2 routing_EW.cv.2" vType="cv" speedFactor="1.05" vaporized=""/>
    <tripinfo id="EW.cv.4" depart="65.00" departLane="-E2_1" departPos="5.10" departSpeed="16.20" departDelay="0.00" arrival="128.00" arrivalLane="-E0_0" arrivalPos="500.03" arrivalSpeed="16.19" duration="63.00" routeLength="1001.60" waitingTime="0.00" waitingCount="0" stopTime="0.00" timeLoss="1.00" rerouteNo="0" devices="tripinfo_EW.cv.4 routing_EW.cv.4" vType="cv" speedFactor="1.03" vaporized=""/>
    <tripinfo id="SE.cv.1" depart="67.00" departLane="-E3_0" departPos="5.10" departSpeed="20.21" departDelay="0.00" arrival="131.00" arrivalLane="E2_0" arrivalPos="508.36" arrivalSpeed="15.72" duration="64.00" routeLength="1004.51" waitingTime="0.00" waitingCount="0" stopTime="0.00" timeLoss="6.75" rerouteNo="0" devices="tripinfo_SE.cv.1 routing_SE.cv.1" vType="cv" speedFactor="1.00" vaporized=""/>
    <tripinfo id="EW.cv.3" depart="60.00" departLane="-E2_0" departPos="5.10" departSpeed="14.19" departDelay="0.00" arrival="132.00" arrivalLane="-E0_1" arrivalPos="500.03" arrivalSpeed="14.19" duration="72.00" routeLength="1001.60" waitingTime="0.00" waitingCount="0" stopTime="0.00" timeLoss="1.03" rerouteNo="0" devices="tripinfo_EW.cv.3 routing_EW.cv.3" vType="cv" speedFactor="0.91" vaporized=""/>
    <tripinfo id="WS.cv.4" depart="77.00" departLane="E0_0" departPos="5.10" departSpeed="16.51" departDelay="0.00" arrival="137.00" arrivalLane="E3_1" arrivalPos="501.31" arrivalSpeed="21.22" duration="60.00" routeLength="995.54" waitingTime="0.00" waitingCount="0" stopTime="0.00" timeLoss="6.30" rerouteNo="0" devices="tripinfo_WS.cv.4 routing_WS.cv.4" vType="cv" speedFactor="1.05" vaporized=""/>
    <tripinfo id="WE.cv.1" depart="43.00" departLane="E0_1" departPos="5.10" departSpeed="14.05" departDelay="0.00" arrival="138.00" arrivalLane="E2_0" arrivalPos="508.36" arrivalSpeed="14.05" duration="95.00" routeLength="1002.59" waitingTime="13.00" waitingCount="1" stopTime="0.00" timeLoss="23.57" rerouteNo="0" devices="tripinfo_WE.cv.1 routing_WE.cv.1" vType="cv" speedFactor="0.90" vaporized=""/>
    <tripinfo id="SE.0" depart="81.00" departLane="-E3_0" departPos="5.10" departSpeed="19.77" departDelay="0.00" arrival="146.00" arrivalLane="E2_0" arrivalPos="508.36" arrivalSpeed="15.37" duration="65.00" routeLength="1004.51" waitingTime="0.00" waitingCount="0" stopTime="0.00" timeLoss="5.99" rerouteNo="0" devices="tripinfo_SE.0 routing_SE.0" vType="car" speedFactor="0.98" vaporized=""/>
    <tripinfo id="SN.cv.4" depart="68.00" departLane="-E3_1" departPos="5.10" departSpeed="19.51" departDelay="0.00" arrival="148.00" arrivalLane="-E1_0" arrivalPos="498.92" arrivalSpeed="19.51" duration="80.00" routeLength="995.07" waitingTime="16.00" waitingCount="1" stopTime="0.00" timeLoss="28.33" rerouteNo="0" devices="tripinfo_SN.cv.4 routing_SN.cv.4" vType="cv" speedFactor="0.97" vaporized=""/>
    <tripinfo id="SN.cv.3" depart="67.00" departLane="-E3_1" departPos="5.10" departSpeed="18.76" departDelay="0.00" arrival="149.00" arrivalLane="-E1_0" arrivalPos="498.92" arrivalSpeed="18.76" duration="82.00" routeLength="995.07" waitingTime="16.00" waitingCount="1" stopTime="0.00" timeLoss="28.16" rerouteNo="0" devices="tripinfo_SN.cv.3 routing_SN.cv.3" vType="cv" speedFactor="0.93" vaporized=""/>
    <tripinfo id="SN.cv.5" depart="76.00" departLane="-E3_2" departPos="5.10" departSpeed="19.94" departDelay="0.00" arrival="151.00" arrivalLane="-E1_1" arrivalPos="498.92" arrivalSpeed="19.67" duration="75.00" routeLength="995.07" waitingTime="10.00" waitingCount="1" stopTime="0.00" timeLoss="24.75" rerouteNo="0" devices="tripinfo_SN.cv.5 routing_SN.cv.5" vType="cv" speedFactor="0.99" vaporized=""/>
    <tripinfo id="SN.cv.8" depart="93.00" departLane="-E3_1" departPos="5.10" departSpeed="21.44" departDelay="0.00" arrival="151.00" arrivalLane="-E1_0" arrivalPos="498.92" arrivalSpeed="20.29" duration="58.00" routeLength="995.07" waitingTime="0.00" waitingCount="0" stopTime="0.00" timeLoss="10.70" rerouteNo="0" devices="tripinfo_SN.cv.8 routing_SN.cv.8" vType="cv" speedFactor="1.07" vaporized=""/>
    <tripinfo id="SE.cv.2" depart="88.00" departLane="-E3_0" departPos="5.10" departSpeed="22.00" departDelay="0.00" arrival="152.00" arrivalLane="E2_0" arrivalPos="508.36" arrivalSpeed="17.11" duration="64.00" routeLength="1004.51" waitingTime="0.00" waitingCount="0" stopTime="0.00" timeLoss="10.76" rerouteNo="0" devices="tripinfo_SE.cv.2 routing_SE.cv.2" vType="cv" speedFactor="1.09" vaporized=""/>
    <tripinfo id="SN.cv.6" depart="81.00" departLane="-E3_1" departPos="5.10" departSpeed="19.33" departDelay="0.00" arrival="153.00" arrivalLane="-E1_0" arrivalPos="498.92" arrivalSpeed="19.04" duration="72.00" routeLength="995.07" waitingTime="6.00" waitingCount="1" stopTime="0.00" timeLoss="20.40" rerouteNo="0" devices="tripinfo_SN.cv.6 routing_SN.cv.6" vType="cv" speedFactor="0.96" vaporized=""/>
    <tripinfo id="SN.cv.7" depart="87.00" departLane="-E3_2" departPos="5.10" departSpeed="20.98" departDelay="0.00" arrival="153.00" arrivalLane="-E1_1" arrivalPos="498.92" arrivalSpeed="20.17" duration="66.00" routeLength="995.07" waitingTime="3.00" waitingCount="1" stopTime="0.00" timeLoss="18.30" rerouteNo="0" devices="tripinfo_SN.cv.7 routing_SN.cv.7" vType="cv" speedFactor="1.04" vaporized=""/>
    <tripinfo id="SW.cv.0" depart="56.00" departLane="-E3_3" departPos="5.10" departSpeed="20.01" departDelay="0.00" arrival="154.00" arrivalLane="-E0_0" arrivalPos="500.03" arrivalSpeed="15.56" duration="98.00" routeLength="996.18" waitingTime="29.00" waitingCount="1" stopTime="0.00" timeLoss="40.12" rerouteNo="0" devices="tripinfo_SW.cv.0 routing_SW.cv.0" vType="cv" speedFactor="0.99" vaporized=""/>
    <tripinfo id="SW.cv.1" depart="69.00" departLane="-E3_3" departPos="5.10" departSpeed="21.30" departDelay="0.00" arrival="154.00" arrivalLane="-E0_1" arrivalPos="500.03" arrivalSpeed="16.57" duration="85.00" routeLength="996.18" waitingTime="18.00" waitingCount="1" stopTime="0.00" timeLoss="31.38" rerouteNo="0" devices="tripinfo_SW.cv.1 routing_SW.cv.1" vType="cv" speedFactor="1.06" vaporized=""/>
    <tripinfo id="WS.cv.5" depart="90.00" departLane="E0_0" departPos="5.10" departSpeed="14.84" departDelay="0.00" arrival="155.00" arrivalLane="E3_0" arrivalPos="501.31" arrivalSpeed="19.07" duration="65.00" routeLength="995.54" waitingTime="0.00" waitingCount="0" stopTime="0.00" timeLoss="5.47" rerouteNo="0" devices="tripinfo_WS.cv.5 routing_WS.cv.5" vType="cv" speedFactor="0.95" vaporized=""/>
    <tripinfo id="SN.2" depart="94.00" departLane="-E3_2" departPos="5.10" departSpeed="23.28" departDelay="0.00" arrival="155.00" arrivalLane="-E1_1" arrivalPos="498.92" arrivalSpeed="21.34" duration="61.00" routeLength="995.07" waitingTime="0.00" waitingCount="0" stopTime="0.00" timeLoss="17.74" rerouteNo="0" devices="tripinfo_SN.2 routing_SN.2" vType="car" speedFactor="1.16" vaporized=""/>
    <tripinfo id="SE.1" depart="89.00" departLane="-E3_0" departPos="5.10" departSpeed="18.83" departDelay="0.00" arrival="158.00" arrivalLane="E2_0" arrivalPos="508.36" arrivalSpeed="14.65" duration="69.00" routeLength="1004.51" waitingTime="0.00" waitingCount="0" stopTime="0.00" timeLoss="7.63" rerouteNo="0" devices="tripinfo_SE.1 routing_SE.1" vType="car" speedFactor="0.94" vaporized=""/>
    <tripinfo id="SN.cv.9" depart="102.00" departLane="-E3_1" departPos="5.10" departSpeed="19.10" departDelay="0.00" arrival="158.00" arrivalLane="-E1_0" arrivalPos="498.92" arrivalSpeed="19.08" duration="56.00" routeLength="995.07" waitingTime="0.00" waitingCount="0" stopTime="0.00" timeLoss="3.15" rerouteNo="0" devices="tripinfo_SN.cv.9 routing_SN.cv.9" vType="cv" speedFactor="0.95" vaporized=""/>
    <tripinfo id="SW.cv.2" depart="76.00" departLane="-E3_3" departPos="5.10" departSpeed="19.49" departDelay="0.00" arrival="159.00" arrivalLane="-E0_0" arrivalPos="500.03" arrivalSpeed="15.16" duration="83.00" routeLength="996.18" waitingTime="11.00" waitingCount="1" stopTime="0.00" timeLoss="24.46" rerouteNo="0" devices="tripinfo_SW.cv.2 routing_SW.cv.2" vType="cv" speedFactor="0.97" vaporized=""/>
    <tripinfo id="SW.0" depart="100.00" departLane="-E3_3" departPos="5.10" departSpeed="22.24" departDelay="0.00" arrival="159.00" arrivalLane="-E0_1" arrivalPos="500.03" arrivalSpeed="17.29" duration="59.00" routeLength="996.18" waitingTime="0.00" waitingCount="0" stopTime="0.00" timeLoss="7.17" rerouteNo="0" devices="tripinfo_SW.0 routing_SW.0" vType="car" speedFactor="1.11" vaporized=""/>
    <tripinfo id="SN.cv.10" depart="109.00" departLane="-E3_1" departPos="5.10" departSpeed="22.35" departDelay="0.00" arrival="159.00" arrivalLane="-E1_1" arrivalPos="498.92" arrivalSpeed="22.23" duration="50.00" routeLength="995.07" waitingTime="0.00" waitingCount="0" stopTime="0.00" timeLoss="4.80" rerouteNo="0" devices="tripinfo_SN.cv.10 routing_SN.cv.10" vType="cv" speedFactor="1.11" vaporized=""/>
    <tripinfo id="SN.3" depart="107.00" departLane="-E3_2" departPos="5.10" departSpeed="19.84" departDelay="0.00" arrival="160.00" arrivalLane="-E1_0" arrivalPos="498.92" arrivalSpeed="19.44" duration="53.00" routeLength="995.07" waitingTime="0.00" waitingCount="0" stopTime="0.00" timeLoss="2.69" rerouteNo="0" devices="tripinfo_SN.3 routing_SN.3" vType="car" speedFactor="0.99" vaporized=""/>
    <tripinfo id="NS.1" depart="69.00" departLane="E1_2" departPos="5.10" departSpeed="21.32" departDelay="0.00" arrival="161.00" arrivalLane="E3_1" arrivalPos="501.31" arrivalSpeed="21.32" duration="92.00" routeLength="994.98" waitingTime="32.00" waitingCount="1" stopTime="0.00" timeLoss="45.00" rerouteNo="0" devices="tripinfo_NS.1 routing_NS.1" vType="car" speedFactor="1.06" vaporized=""/>
    <tripinfo id="NS.cv.10" depart="64.00" departLane="E1_1" departPos="5.10" departSpeed="20.39" departDelay="0.00" arrival="162.00" arrivalLane="E3_0" arrivalPos="501.31" arrivalSpeed="20.39" duration="98.00" routeLength="994.98" waitingTime="37.00" waitingCount="1" stopTime="0.00" timeLoss="48.87" rerouteNo="0" devices="tripinfo_NS.cv.10 routing_NS.cv.10" vType="cv" speedFactor="1.01" vaporized=""/>
    <tripinfo id="WN.cv.0" depart="69.00" departLane="E0_2" departPos="5.10" departSpeed="14.64" departDelay="0.00" arrival="161.00" arrivalLane="-E1_0" arrivalPos="498.92" arrivalSpeed="2.60" duration="92.00" routeLength="993.15" waitingTime="50.00" waitingCount="1" stopTime="0.00" timeLoss="58.17" rerouteNo="0" devices="tripinfo_WN.cv.0 routing_WN.cv.0" vType="cv" speedFactor="0.94" vaporized="teleport"/>
    <tripinfo id="NS.cv.12" depart="72.00" departLane="E1_2" departPos="5.10" departSpeed="22.58" departDelay="0.00" arrival="164.00" arrivalLane="E3_1" arrivalPos="501.31" arrivalSpeed="22.21" duration="92.00" routeLength="994.98" waitingTime="31.00" waitingCount="1" stopTime="0.00" timeLoss="47.05" rerouteNo="0" devices="tripinfo_NS.cv.12 routing_NS.cv.12" vType="cv" speedFactor="1.12" vaporized=""/>
    <tripinfo id="SN.cv.11" depart="110.00" departLane="-E3_2" departPos="5.10" departSpeed="19.63" departDelay="0.00" arrival="164.00" arrivalLane="-E1_1" arrivalPos="498.92" arrivalSpeed="19.62" duration="54.00" routeLength="995.07" waitingTime="0.00" waitingCount="0" stopTime="0.00" timeLoss="2.43" rerouteNo="0" devices="tripinfo_SN.cv.11 routing_SN.cv.11" vType="cv" speedFactor="0.98" vaporized=""/>
    <tripinfo id="SN.cv.12" depart="111.00" departLane="-E3_1" departPos="5.10" departSpeed="21.21" departDelay="0.00" arrival="165.00" arrivalLane="-E1_0" arrivalPos="498.92" arrivalSpeed="20.22" duration="54.00" routeLength="995.07" waitingTime="0.00" waitingCount="0" stopTime="0.00" timeLoss="6.19" rerouteNo="0" devices="tripinfo_SN.cv.12 routing_SN.cv.12" vType="cv" speedFactor="1.05" vaporized=""/>
    <tripinfo id="NS.0" depart="66.00" departLane="E1_1" departPos="5.10" departSpeed="18.86" departDelay="0.00" arrival="166.00" arrivalLane="E3_0" arrivalPos="501.31" arrivalSpeed="18.84" duration="100.00" routeLength="994.98" waitingTime="34.00" waitingCount="1" stopTime="0.00" timeLoss="47.18" rerouteNo="0" devices="tripinfo_NS.0 routing_NS.0" vType="car" speedFactor="0.94" vaporized=""/>
    <tripinfo id="SN.cv.13" depart="119.00" departLane="-E3_2" departPos="5.10" departSpeed="22.78" departDelay="0.00" arrival="166.00" arrivalLane="-E1_1" arrivalPos="498.92" arrivalSpeed="21.69" duration="47.00" routeLength="995.07" waitingTime="0.00" waitingCount="0" stopTime="0.00" timeLoss="2.62" rerouteNo="0" devices="tripinfo_SN.cv.13 routing_SN.cv.13" vType="cv" speedFactor="1.13" vaporized=""/>
    <tripinfo id="NS.cv.14" depart="84.00" departLane="E1_2" departPos="5.10" departSpeed="20.61" departDelay="0.00" arrival="167.00" arrivalLane="E3_1" arrivalPos="501.31" arrivalSpeed="20.51" duration="83.00" routeLength="994.98" waitingTime="19.00" waitingCount="1" stopTime="0.00" timeLoss="34.14" rerouteNo="0" devices="tripinfo_NS.cv.14 routing_NS.cv.14" vType="cv" speedFactor="1.02" vaporized=""/>
    <tripinfo id="NS.cv.11" depart="69.00" departLane="E1_1" departPos="5.10" departSpeed="21.87" departDelay="0.00" arrival="168.00" arrivalLane="E3_0" arrivalPos="501.31" arrivalSpeed="20.54" duration="99.00" routeLength="994.98" waitingTime="34.00" waitingCount="1" stopTime="0.00" timeLoss="53.26" rerouteNo="0" devices="tripinfo_NS.cv.11 routing_NS.cv.11" vType="cv" speedFactor="1.09" vaporized=""/>
    <tripinfo id="NS.2" depart="87.00" departLane="E1_1" departPos="5.10" departSpeed="22.51" departDelay="0.00" arrival="169.00" arrivalLane="E3_1" arrivalPos="501.31" arrivalSpeed="21.49" duration="82.00" routeLength="994.98" waitingTime="19.00" waitingCount="1" stopTime="0.00" timeLoss="37.24" rerouteNo="0" devices="tripinfo_NS.2 routing_NS.2" vType="car" speedFactor="1.12" vaporized=""/>
    <tripinfo id="SN.cv.14" depart="122.00" departLane="-E3_2" departPos="5.10" departSpeed="21.89" departDelay="0.00" arrival="169.00" arrivalLane="-E1_1" arrivalPos="498.92" arrivalSpeed="21.71" duration="47.00" routeLength="995.07" waitingTime="0.00" waitingCount="0" stopTime="0.00" timeLoss="1.20" rerouteNo="0" devices="tripinfo_SN.cv.14 routing_SN.cv.14" vType="cv" speedFactor="1.09" vaporized=""/>