<?xml version="1.0" encoding="UTF-8"?>

<!-- generated on 2023-01-30 12:05:12 by Eclipse SUMO sumo Version 1.13.0
<configuration xmlns:xsi="http://www.w3.org/2001/XMLSchema-instance" xsi:noNamespaceSchemaLocation="http://sumo.dlr.de/xsd/sumoConfiguration.xsd">

    <input>
        <net-file value="data/Eastway-Central.net.xml"/>
        <route-files value="data/cav80-offpeak.rou.xml"/>
        <additional-files value="data/Eastway-Central.add.xml"/>
    </input>

    <output>
        <tripinfo-output value="result\2023-01-30-12-04-30\5_tripinfo.xml"/>
    </output>

    <report>
        <no-warnings value="true"/>
        <no-step-log value="true"/>
    </report>

    <traci_server>
        <remote-port value="53994"/>
    </traci_server>

    <random_number>
        <seed value="4"/>
    </random_number>

</configuration>
-->

<tripinfos xmlns:xsi="http://www.w3.org/2001/XMLSchema-instance" xsi:noNamespaceSchemaLocation="http://sumo.dlr.de/xsd/tripinfo_file.xsd">
    <tripinfo id="SN.0" depart="0.00" departLane="-E3_1" departPos="5.10" departSpeed="20.49" departDelay="0.00" arrival="49.00" arrivalLane="-E1_0" arrivalPos="498.92" arrivalSpeed="20.49" duration="49.00" routeLength="995.07" waitingTime="0.00" waitingCount="0" stopTime="0.00" timeLoss="0.10" rerouteNo="0" devices="tripinfo_SN.0 routing_SN.0" vType="car" speedFactor="1.02" vaporized=""/>
    <tripinfo id="BNS.0" depart="0.00" departLane="E1_1" departPos="12.10" departSpeed="20.12" departDelay="0.00" arrival="50.00" arrivalLane="E3_0" arrivalPos="501.31" arrivalSpeed="20.12" duration="50.00" routeLength="987.98" waitingTime="0.00" waitingCount="0" stopTime="0.00" timeLoss="0.19" rerouteNo="0" devices="tripinfo_BNS.0 routing_BNS.0" vType="bus" speedFactor="1.00" vaporized=""/>
    <tripinfo id="NS.cv.2" depart="6.00" departLane="E1_2" departPos="5.10" departSpeed="22.01" departDelay="0.00" arrival="52.00" arrivalLane="E3_1" arrivalPos="501.31" arrivalSpeed="22.01" duration="46.00" routeLength="994.98" waitingTime="0.00" waitingCount="0" stopTime="0.00" timeLoss="0.52" rerouteNo="0" devices="tripinfo_NS.cv.2 routing_NS.cv.2" vType="cv" speedFactor="1.09" vaporized=""/>
    <tripinfo id="NS.cv.0" depart="2.00" departLane="E1_2" departPos="5.10" departSpeed="19.62" departDelay="0.00" arrival="54.00" arrivalLane="E3_0" arrivalPos="501.31" arrivalSpeed="19.59" duration="52.00" routeLength="994.98" waitingTime="0.00" waitingCount="0" stopTime="0.00" timeLoss="1.05" rerouteNo="0" devices="tripinfo_NS.cv.0 routing_NS.cv.0" vType="cv" speedFactor="0.98" vaporized=""/>
    <tripinfo id="NS.cv.1" depart="4.00" departLane="E1_1" departPos="5.10" departSpeed="18.17" departDelay="0.00" arrival="60.00" arrivalLane="E3_0" arrivalPos="501.31" arrivalSpeed="18.16" duration="56.00" routeLength="994.98" waitingTime="0.00" waitingCount="0" stopTime="0.00" timeLoss="0.69" rerouteNo="0" devices="tripinfo_NS.cv.1 routing_NS.cv.1" vType="cv" speedFactor="0.90" vaporized=""/>
    <tripinfo id="SN.cv.0" depart="5.00" departLane="-E3_2" departPos="5.10" departSpeed="17.42" departDelay="0.00" arrival="63.00" arrivalLane="-E1_0" arrivalPos="498.92" arrivalSpeed="17.42" duration="58.00" routeLength="995.07" waitingTime="0.00" waitingCount="0" stopTime="0.00" timeLoss="0.49" rerouteNo="0" devices="tripinfo_SN.cv.0 routing_SN.cv.0" vType="cv" speedFactor="0.87" vaporized=""/>
    <tripinfo id="EW.0" depart="1.00" departLane="-E2_0" departPos="5.10" departSpeed="18.19" departDelay="0.00" arrival="69.00" arrivalLane="-E0_0" arrivalPos="500.03" arrivalSpeed="18.19" duration="68.00" routeLength="1001.60" waitingTime="1.00" waitingCount="1" stopTime="0.00" timeLoss="12.89" rerouteNo="0" devices="tripinfo_EW.0 routing_EW.0" vType="car" speedFactor="1.16" vaporized=""/>
    <tripinfo id="WE.cv.0" depart="0.00" departLane="E0_0" departPos="5.10" departSpeed="18.04" departDelay="0.00" arrival="70.00" arrivalLane="E2_0" arrivalPos="508.36" arrivalSpeed="18.04" duration="70.00" routeLength="1002.59" waitingTime="3.00" waitingCount="1" stopTime="0.00" timeLoss="14.04" rerouteNo="0" devices="tripinfo_WE.cv.0 routing_WE.cv.0" vType="cv" speedFactor="1.15" vaporized=""/>
    <tripinfo id="EW.1" depart="11.00" departLane="-E2_1" departPos="5.10" departSpeed="17.35" departDelay="0.00" arrival="71.00" arrivalLane="-E0_1" arrivalPos="500.03" arrivalSpeed="17.35" duration="60.00" routeLength="1001.60" waitingTime="0.00" waitingCount="0" stopTime="0.00" timeLoss="1.60" rerouteNo="0" devices="tripinfo_EW.1 routing_EW.1" vType="car" speedFactor="1.11" vaporized=""/>
    <tripinfo id="WS.cv.0" depart="10.00" departLane="E0_0" departPos="5.10" departSpeed="15.02" departDelay="0.00" arrival="75.00" arrivalLane="E3_0" arrivalPos="501.31" arrivalSpeed="19.31" duration="65.00" routeLength="995.54" waitingTime="0.00" waitingCount="0" stopTime="0.00" timeLoss="6.04" rerouteNo="0" devices="tripinfo_WS.cv.0 routing_WS.cv.0" vType="cv" speedFactor="0.96" vaporized=""/>
    <tripinfo id="WE.cv.1" depart="14.00" departLane="E0_1" departPos="5.10" departSpeed="16.23" departDelay="0.00" arrival="77.00" arrivalLane="E2_0" arrivalPos="508.36" arrivalSpeed="16.23" duration="63.00" routeLength="1002.59" waitingTime="0.00" waitingCount="0" stopTime="0.00" timeLoss="0.45" rerouteNo="0" devices="tripinfo_WE.cv.1 routing_WE.cv.1" vType="cv" speedFactor="1.04" vaporized=""/>
    <tripinfo id="SE.cv.0" depart="14.00" departLane="-E3_0" departPos="5.10" departSpeed="17.59" departDelay="0.00" arrival="86.00" arrivalLane="E2_0" arrivalPos="508.36" arrivalSpeed="13.68" duration="72.00" routeLength="1004.51" waitingTime="0.00" waitingCount="0" stopTime="0.00" timeLoss="5.73" rerouteNo="0" devices="tripinfo_SE.cv.0 routing_SE.cv.0" vType="cv" speedFactor="0.87" vaporized=""/>
    <tripinfo id="NE.cv.0" depart="9.00" departLane="E1_3" departPos="5.10" departSpeed="20.90" departDelay="0.00" arrival="90.00" arrivalLane="E2_0" arrivalPos="508.36" arrivalSpeed="16.23" duration="81.00" routeLength="1002.03" waitingTime="14.00" waitingCount="1" stopTime="0.00" timeLoss="25.81" rerouteNo="0" devices="tripinfo_NE.cv.0 routing_NE.cv.0" vType="cv" speedFactor="1.04" vaporized=""/>
    <tripinfo id="SW.cv.0" depart="1.00" departLane="-E3_3" departPos="5.10" departSpeed="19.37" departDelay="0.00" arrival="91.00" arrivalLane="-E0_0" arrivalPos="500.03" arrivalSpeed="15.07" duration="90.00" routeLength="996.18" waitingTime="20.00" waitingCount="1" stopTime="0.00" timeLoss="31.20" rerouteNo="0" devices="tripinfo_SW.cv.0 routing_SW.cv.0" vType="cv" speedFactor="0.96" vaporized=""/>
    <tripinfo id="SN.cv.1" depart="6.00" departLane="-E3_1" departPos="5.10" departSpeed="20.53" departDelay="0.00" arrival="94.00" arrivalLane="-E1_0" arrivalPos="498.92" arrivalSpeed="20.53" duration="88.00" routeLength="995.07" waitingTime="24.00" waitingCount="1" stopTime="0.00" timeLoss="38.82" rerouteNo="0" devices="tripinfo_SN.cv.1 routing_SN.cv.1" vType="cv" speedFactor="1.02" vaporized=""/>
    <tripinfo id="SN.cv.2" depart="18.00" departLane="-E3_2" departPos="5.10" departSpeed="19.82" departDelay="0.00" arrival="94.00" arrivalLane="-E1_1" arrivalPos="498.92" arrivalSpeed="19.82" duration="76.00" routeLength="995.07" waitingTime="14.00" waitingCount="1" stopTime="0.00" timeLoss="25.81" rerouteNo="0" devices="tripinfo_SN.cv.2 routing_SN.cv.2" vType="cv" speedFactor="0.99" vaporized=""/>
    <tripinfo id="NS.cv.4" depart="11.00" departLane="E1_2" departPos="5.10" departSpeed="20.03" departDelay="0.00" arrival="95.00" arrivalLane="E3_0" arrivalPos="501.31" arrivalSpeed="20.03" duration="84.00" routeLength="994.98" waitingTime="22.00" waitingCount="1" stopTime="0.00" timeLoss="34.23" rerouteNo="0" devices="tripinfo_NS.cv.4 routing_NS.cv.4" vType="cv" speedFactor="1.00" vaporized=""/>
    <tripinfo id="SW.cv.1" depart="8.00" departLane="-E3_3" departPos="5.10" departSpeed="17.86" departDelay="0.00" arrival="97.00" arrivalLane="-E0_0" arrivalPos="500.03" arrivalSpeed="13.89" duration="89.00" routeLength="996.18" waitingTime="13.00" waitingCount="1" stopTime="0.00" timeLoss="24.53" rerouteNo="0" devices="tripinfo_SW.cv.1 routing_SW.cv.1" vType="cv" speedFactor="0.89" vaporized=""/>
    <tripinfo id="NS.cv.3" depart="10.00" departLane="E1_1" departPos="5.10" departSpeed="18.70" departDelay="0.00" arrival="97.00" arrivalLane="E3_0" arrivalPos="501.31" arrivalSpeed="18.23" duration="87.00" routeLength="994.98" waitingTime="22.00" waitingCount="1" stopTime="0.00" timeLoss="33.59" rerouteNo="0" devices="tripinfo_NS.cv.3 routing_NS.cv.3" vType="cv" speedFactor="0.93" vaporized=""/>
    <tripinfo id="SN.cv.3" depart="19.00" departLane="-E3_1" departPos="5.10" departSpeed="21.09" departDelay="0.00" arrival="97.00" arrivalLane="-E1_0" arrivalPos="498.92" arrivalSpeed="20.81" duration="78.00" routeLength="995.07" waitingTime="14.00" waitingCount="1" stopTime="0.00" timeLoss="30.02" rerouteNo="0" devices="tripinfo_SN.cv.3 routing_SN.cv.3" vType="cv" speedFactor="1.05" vaporized=""/>
    <tripinfo id="SN.cv.4" depart="22.00" departLane="-E3_2" departPos="5.10" departSpeed="20.28" departDelay="0.00" arrival="97.00" arrivalLane="-E1_1" arrivalPos="498.92" arrivalSpeed="20.10" duration="75.00" routeLength="995.07" waitingTime="12.00" waitingCount="1" stopTime="0.00" timeLoss="25.78" rerouteNo="0" devices="tripinfo_SN.cv.4 routing_SN.cv.4" vType="cv" speedFactor="1.01" vaporized=""/>
    <tripinfo id="NS.cv.5" depart="36.00" departLane="E1_2" departPos="5.10" departSpeed="21.28" departDelay="0.00" arrival="98.00" arrivalLane="E3_1" arrivalPos="501.31" arrivalSpeed="21.24" duration="62.00" routeLength="994.98" waitingTime="0.00" waitingCount="0" stopTime="0.00" timeLoss="14.33" rerouteNo="0" devices="tripinfo_NS.cv.5 routing_NS.cv.5" vType="cv" speedFactor="1.06" vaporized=""/>
    <tripinfo id="NS.cv.6" depart="37.00" departLane="E1_1" departPos="5.10" departSpeed="20.90" departDelay="0.00" arrival="99.00" arrivalLane="E3_0" arrivalPos="501.31" arrivalSpeed="19.70" duration="62.00" routeLength="994.98" waitingTime="0.00" waitingCount="0" stopTime="0.00" timeLoss="14.12" rerouteNo="0" devices="tripinfo_NS.cv.6 routing_NS.cv.6" vType="cv" speedFactor="1.04" vaporized=""/>
    <tripinfo id="SN.cv.7" depart="33.00" departLane="-E3_1" departPos="5.10" departSpeed="19.02" departDelay="0.00" arrival="100.00" arrivalLane="-E1_0" arrivalPos="498.92" arrivalSpeed="18.96" duration="67.00" routeLength="995.07" waitingTime="0.00" waitingCount="0" stopTime="0.00" timeLoss="14.60" rerouteNo="0" devices="tripinfo_SN.cv.7 routing_SN.cv.7" vType="cv" speedFactor="0.95" vaporized=""/>
    <tripinfo id="SN.cv.5" depart="25.00" departLane="-E3_1" departPos="5.10" departSpeed="18.96" departDelay="0.00" arrival="101.00" arrivalLane="-E1_1" arrivalPos="498.92" arrivalSpeed="18.91" duration="76.00" routeLength="995.07" waitingTime="9.00" waitingCount="1" stopTime="0.00" timeLoss="22.73" rerouteNo="0" devices="tripinfo_SN.cv.5 routing_SN.cv.5" vType="cv" speedFactor="0.94" vaporized=""/>
    <tripinfo id="NS.0" depart="45.00" departLane="E1_2" departPos="5.10" departSpeed="19.75" departDelay="0.00" arrival="101.00" arrivalLane="E3_1" arrivalPos="501.31" arrivalSpeed="19.67" duration="56.00" routeLength="994.98" waitingTime="0.00" waitingCount="0" stopTime="0.00" timeLoss="4.99" rerouteNo="0" devices="tripinfo_NS.0 routing_NS.0" vType="car" speedFactor="0.98" vaporized=""/>
    <tripinfo id="SN.cv.6" depart="29.00" departLane="-E3_2" departPos="5.10" departSpeed="20.33" departDelay="0.00" arrival="103.00" arrivalLane="-E1_1" arrivalPos="498.92" arrivalSpeed="19.63" duration="74.00" routeLength="995.07" waitingTime="8.00" waitingCount="1" stopTime="0.00" timeLoss="24.44" rerouteNo="0" devices="tripinfo_SN.cv.6 routing_SN.cv.6" vType="cv" speedFactor="1.01" vaporized=""/>
    <tripinfo id="SN.2" depart="43.00" departLane="-E3_1" departPos="5.10" departSpeed="17.60" departDelay="0.00" arrival="104.00" arrivalLane="-E1_0" arrivalPos="498.92" arrivalSpeed="17.58" duration="61.00" routeLength="995.07" waitingTime="0.00" waitingCount="0" stopTime="0.00" timeLoss="4.30" rerouteNo="0" devices="tripinfo_SN.2 routing_SN.2" vType="car" speedFactor="0.87" vaporized=""/>
    <tripinfo id="NS.cv.8" depart="52.00" departLane="E1_2" departPos="5.10" departSpeed="19.72" departDelay="0.00" arrival="104.00" arrivalLane="E3_1" arrivalPos="501.31" arrivalSpeed="19.62" duration="52.00" routeLength="994.98" waitingTime="0.00" waitingCount="0" stopTime="0.00" timeLoss="1.44" rerouteNo="0" devices="tripinfo_NS.cv.8 routing_NS.cv.8" vType="cv" speedFactor="0.98" vaporized=""/>
    <tripinfo id="SN.cv.8" depart="34.00" departLane="-E3_2" departPos="5.10" departSpeed="23.12" departDelay="0.00" arrival="105.00" arrivalLane="-E1_1" arrivalPos="498.92" arrivalSpeed="21.03" duration="71.00" routeLength="995.07" waitingTime="6.00" waitingCount="1" stopTime="0.00" timeLoss="27.11" rerouteNo="0" devices="tripinfo_SN.cv.8 routing_SN.cv.8" vType="cv" speedFactor="1.15" vaporized=""/>
    <tripinfo id="NS.cv.7" depart="51.00" departLane="E1_1" departPos="5.10" departSpeed="18.77" departDelay="0.00" arrival="105.00" arrivalLane="E3_0" arrivalPos="501.31" arrivalSpeed="18.77" duration="54.00" routeLength="994.98" waitingTime="0.00" waitingCount="0" stopTime="0.00" timeLoss="0.73" rerouteNo="0" devices="tripinfo_NS.cv.7 routing_NS.cv.7" vType="cv" speedFactor="0.93" vaporized=""/>
    <tripinfo id="NS.cv.10" depart="56.00" departLane="E1_2" departPos="5.10" departSpeed="20.60" departDelay="0.00" arrival="107.00" arrivalLane="E3_1" arrivalPos="501.31" arrivalSpeed="20.35" duration="51.00" routeLength="994.98" waitingTime="0.00" waitingCount="0" stopTime="0.00" timeLoss="2.24" rerouteNo="0" devices="tripinfo_NS.cv.10 routing_NS.cv.10" vType="cv" speedFactor="1.02" vaporized=""/>
    <tripinfo id="SN.1" depart="40.00" departLane="-E3_2" departPos="5.10" departSpeed="17.60" departDelay="0.00" arrival="108.00" arrivalLane="-E1_1" arrivalPos="498.92" arrivalSpeed="17.55" duration="68.00" routeLength="995.07" waitingTime="0.00" waitingCount="0" stopTime="0.00" timeLoss="11.27" rerouteNo="0" devices="tripinfo_SN.1 routing_SN.1" vType="car" speedFactor="0.87" vaporized=""/>
    <tripinfo id="SN.cv.10" depart="48.00" departLane="-E3_1" departPos="5.10" departSpeed="19.67" departDelay="0.00" arrival="109.00" arrivalLane="-E1_0" arrivalPos="498.92" arrivalSpeed="18.35" duration="61.00" routeLength="995.07" waitingTime="0.00" waitingCount="0" stopTime="0.00" timeLoss="9.73" rerouteNo="0" devices="tripinfo_SN.cv.10 routing_SN.cv.10" vType="cv" speedFactor="0.98" vaporized=""/>
    <tripinfo id="NS.cv.11" depart="60.00" departLane="E1_1" departPos="5.10" departSpeed="21.67" departDelay="0.00" arrival="109.00" arrivalLane="E3_1" arrivalPos="501.31" arrivalSpeed="20.97" duration="49.00" routeLength="994.98" waitingTime="0.00" waitingCount="0" stopTime="0.00" timeLoss="2.91" rerouteNo="0" devices="tripinfo_NS.cv.11 routing_NS.cv.11" vType="cv" speedFactor="1.08" vaporized=""/>
    <tripinfo id="SN.cv.9" depart="47.00" departLane="-E3_2" departPos="5.10" departSpeed="20.39" departDelay="0.00" arrival="110.00" arrivalLane="-E1_1" arrivalPos="498.92" arrivalSpeed="19.16" duration="63.00" routeLength="995.07" waitingTime="0.00" waitingCount="0" stopTime="0.00" timeLoss="13.83" rerouteNo="0" devices="tripinfo_SN.cv.9 routing_SN.cv.9" vType="cv" speedFactor="1.01" vaporized=""/>
    <tripinfo id="SN.3" depart="50.00" departLane="-E3_2" departPos="5.10" departSpeed="18.19" departDelay="0.00" arrival="112.00" arrivalLane="-E1_0" arrivalPos="498.92" arrivalSpeed="18.07" duration="62.00" routeLength="995.07" waitingTime="0.00" waitingCount="0" stopTime="0.00" timeLoss="7.20" rerouteNo="0" devices="tripinfo_SN.3 routing_SN.3" vType="car" speedFactor="0.90" vaporized=""/>
    <tripinfo id="SN.cv.11" depart="60.00" departLane="-E3_1" departPos="5.10" departSpeed="22.04" departDelay="0.00" arrival="113.00" arrivalLane="-E1_1" arrivalPos="498.92" arrivalSpeed="21.50" duration="53.00" routeLength="995.07" waitingTime="0.00" waitingCount="0" stopTime="0.00" timeLoss="7.03" rerouteNo="0" devices="tripinfo_SN.cv.11 routing_SN.cv.11" vType="cv" speedFactor="1.10" vaporized=""/>
    <tripinfo id="NS.cv.12" depart="62.00" departLane="E1_2" departPos="5.10" departSpeed="20.35" departDelay="0.00" arrival="113.00" arrivalLane="E3_1" arrivalPos="501.31" arrivalSpeed="20.28" duration="51.00" routeLength="994.98" waitingTime="0.00" waitingCount="0" stopTime="0.00" timeLoss="1.55" rerouteNo="0" devices="tripinfo_NS.cv.12 routing_NS.cv.12" vType="cv" speedFactor="1.01" vaporized=""/>
    <tripinfo id="SE.cv.1" depart="49.00" departLane="-E3_0" departPos="5.10" departSpeed="20.11" departDelay="0.00" arrival="114.00" arrivalLane="E2_0" arrivalPos="508.36" arrivalSpeed="15.64" duration="65.00" routeLength="1004.51" waitingTime="0.00" waitingCount="0" stopTime="0.00" timeLoss="7.33" rerouteNo="0" devices="tripinfo_SE.cv.1 routing_SE.cv.1" vType="cv" speedFactor="1.00" vaporized=""/>
    <tripinfo id="NS.cv.9" depart="55.00" departLane="E1_1" departPos="5.10" departSpeed="17.09" departDelay="0.00" arrival="114.00" arrivalLane="E3_0" arrivalPos="501.31" arrivalSpeed="17.09" duration="59.00" routeLength="994.98" waitingTime="0.00" waitingCount="0" stopTime="0.00" timeLoss="0.32" rerouteNo="0" devices="tripinfo_NS.cv.9 routing_NS.cv.9" vType="cv" speedFactor="0.85" vaporized=""/>
    <tripinfo id="WN.cv.0" depart="44.00" departLane="E0_2" departPos="5.10" departSpeed="17.82" departDelay="0.00" arrival="118.00" arrivalLane="-E1_0" arrivalPos="498.92" arrivalSpeed="22.87" duration="74.00" routeLength="993.15" waitingTime="11.00" waitingCount="1" stopTime="0.00" timeLoss="24.07" rerouteNo="0" devices="tripinfo_WN.cv.0 routing_WN.cv.0" vType="cv" speedFactor="1.14" vaporized=""/>
    <tripinfo id="SE.cv.2" depart="58.00" departLane="-E3_0" departPos="5.10" departSpeed="21.54" departDelay="0.00" arrival="118.00" arrivalLane="E2_0" arrivalPos="508.36" arrivalSpeed="16.73" duration="60.00" routeLength="1004.51" waitingTime="0.00" waitingCount="0" stopTime="0.00" timeLoss="6.22" rerouteNo="0" devices="tripinfo_SE.cv.2 routing_SE.cv.2" vType="cv" speedFactor="1.07" vaporized=""/>
    <tripinfo id="ES.0" depart="33.00" departLane="-E2_3" departPos="5.10" departSpeed="17.30" departDelay="0.00" arrival="119.00" arrivalLane="E3_0" arrivalPos="501.31" arrivalSpeed="22.20" duration="86.00" routeLength="1002.88" waitingTime="21.00" waitingCount="1" stopTime="0.00" timeLoss="33.61" rerouteNo="0" devices="tripinfo_ES.0 routing_ES.0" vType="car" speedFactor="1.11" vaporized=""/>
    <tripinfo id="WN.cv.1" depart="47.00" departLane="E0_3" departPos="5.10" departSpeed="16.44" departDelay="0.00" arrival="119.00" arrivalLane="-E1_1" arrivalPos="498.92" arrivalSpeed="21.12" duration="72.00" routeLength="993.15" waitingTime="6.00" waitingCount="1" stopTime="0.00" timeLoss="18.21" rerouteNo="0" devices="tripinfo_WN.cv.1 routing_WN.cv.1" vType="cv" speedFactor="1.05" vaporized=""/>
    <tripinfo id="ES.cv.0" depart="23.00" departLane="-E2_2" departPos="5.10" departSpeed="15.89" departDelay="0.00" arrival="121.00" arrivalLane="E3_0" arrivalPos="501.31" arrivalSpeed="20.03" duration="98.00" routeLength="1002.88" waitingTime="29.00" waitingCount="1" stopTime="0.00" timeLoss="41.07" rerouteNo="0" devices="tripinfo_ES.cv.0 routing_ES.cv.0" vType="cv" speedFactor="1.02" vaporized=""/>
    <tripinfo id="NW.cv.0" depart="65.00" departLane="E1_0" departPos="5.10" departSpeed="21.55" departDelay="0.00" arrival="125.00" arrivalLane="-E0_0" arrivalPos="500.03" arrivalSpeed="16.76" duration="60.00" routeLength="993.70" waitingTime="0.00" waitingCount="0" stopTime="0.00" timeLoss="6.31" rerouteNo="0" devices="tripinfo_NW.cv.0 routing_NW.cv.0" vType="cv" speedFactor="1.07" vaporized=""/>
    <tripinfo id="ES.cv.1" depart="35.00" departLane="-E2_2" departPos="5.10" departSpeed="13.64" departDelay="0.00" arrival="126.00" arrivalLane="E3_0" arrivalPos="501.31" arrivalSpeed="17.54" duration="91.00" routeLength="1002.88" waitingTime="14.00" waitingCount="1" stopTime="0.00" timeLoss="25.18" rerouteNo="0" devices="tripinfo_ES.cv.1 routing_ES.cv.1" vType="cv" speedFactor="0.87" vaporized=""/>
    <tripinfo id="WS.cv.1" depart="51.00" departLane="E0_0" departPos="5.10" departSpeed="16.80" departDelay="0.00" arrival="135.00" arrivalLane="E3_0" arrivalPos="501.31" arrivalSpeed="21.60" duration="84.00" routeLength="995.54" waitingTime="14.00" waitingCount="1" stopTime="0.00" timeLoss="30.92" rerouteNo="0" devices="tripinfo_WS.cv.1 routing_WS.cv.1" vType="cv" speedFactor="1.07" vaporized=""/>
    <tripinfo id="EW.cv.0" depart="22.00" departLane="-E2_0" departPos="5.10" departSpeed="15.40" departDelay="0.00" arrival="137.00" arrivalLane="-E0_0" arrivalPos="500.03" arrivalSpeed="15.40" duration="115.00" routeLength="1001.60" waitingTime="39.00" waitingCount="1" stopTime="0.00" timeLoss="49.36" rerouteNo="0" devices="tripinfo_EW.cv.0 routing_EW.cv.0" vType="cv" speedFactor="0.98" vaporized=""/>
    <tripinfo id="WE.cv.2" depart="28.00" departLane="E0_0" departPos="5.10" departSpeed="16.01" departDelay="0.00" arrival="137.00" arrivalLane="E2_0" arrivalPos="508.36" arrivalSpeed="16.01" duration="109.00" routeLength="1002.59" waitingTime="35.00" waitingCount="1" stopTime="0.00" timeLoss="46.15" rerouteNo="0" devices="tripinfo_WE.cv.2 routing_WE.cv.2" vType="cv" speedFactor="1.02" vaporized=""/>
    <tripinfo id="WE.0" depart="43.00" departLane="E0_1" departPos="5.10" departSpeed="16.06" departDelay="0.00" arrival="137.00" arrivalLane="E2_1" arrivalPos="508.36" arrivalSpeed="16.06" duration="94.00" routeLength="1002.59" waitingTime="20.00" waitingCount="1" stopTime="0.00" timeLoss="31.25" rerouteNo="0" devices="tripinfo_WE.0 routing_WE.0" vType="car" speedFactor="1.03" vaporized=""/>
    <tripinfo id="EW.cv.1" depart="51.00" departLane="-E2_1" departPos="5.10" departSpeed="14.54" departDelay="0.00" arrival="139.00" arrivalLane="-E0_1" arrivalPos="500.03" arrivalSpeed="14.54" duration="88.00" routeLength="1001.60" waitingTime="8.00" waitingCount="1" stopTime="0.00" timeLoss="18.20" rerouteNo="0" devices="tripinfo_EW.cv.1 routing_EW.cv.1" vType="cv" speedFactor="0.93" vaporized=""/>
    <tripinfo id="WS.0" depart="62.00" departLane="E0_0" departPos="5.10" departSpeed="15.30" departDelay="0.00" arrival="140.00" arrivalLane="E3_0" arrivalPos="501.31" arrivalSpeed="19.66" duration="78.00" routeLength="995.54" waitingTime="5.00" waitingCount="1" stopTime="0.00" timeLoss="19.85" rerouteNo="0" devices="tripinfo_WS.0 routing_WS.0" vType="car" speedFactor="0.98" vaporized=""/>
    <tripinfo id="WE.cv.3" depart="46.00" departLane="E0_0" departPos="5.10" departSpeed="16.21" departDelay="0.00" arrival="141.00" arrivalLane="E2_0" arrivalPos="508.36" arrivalSpeed="16.17" duration="95.00" routeLength="1002.59" waitingTime="19.00" waitingCount="1" stopTime="0.00" timeLoss="32.18" rerouteNo="0" devices="tripinfo_WE.cv.3 routing_WE.cv.3" vType="cv" speedFactor="1.04" vaporized=""/>
    <tripinfo id="WE.cv.4" depart="47.00" departLane="E0_1" departPos="5.10" departSpeed="14.61" departDelay="0.00" arrival="143.00" arrivalLane="E2_1" arrivalPos="508.36" arrivalSpeed="14.61" duration="96.00" routeLength="1002.59" waitingTime="15.00" waitingCount="1" stopTime="0.00" timeLoss="26.72" rerouteNo="0" devices="tripinfo_WE.cv.4 routing_WE.cv.4" vType="cv" speedFactor="0.93" vaporized=""/>
    <tripinfo id="WE.cv.5" depart="67.00" departLane="E0_1" departPos="5.10" departSpeed="15.88" departDelay="0.00" arrival="144.00" arrivalLane="E2_0" arrivalPos="508.36" arrivalSpeed="15.83" duration="77.00" routeLength="1002.59" waitingTime="0.00" waitingCount="0" stopTime="0.00" timeLoss="13.78" rerouteNo="0" devices="tripinfo_WE.cv.5 routing_WE.cv.5" vType="cv" speedFactor="1.01" vaporized=""/>
    <tripinfo id="NW.cv.1" depart="71.00" departLane="E1_0" departPos="5.10" departSpeed="17.29" departDelay="0.00" arrival="144.00" arrivalLane="-E0_0" arrivalPos="500.03" arrivalSpeed="13.45" duration="73.00" routeLength="993.70" waitingTime="0.00" waitingCount="0" stopTime="0.00" timeLoss="6.75" rerouteNo="0" devices="tripinfo_NW.cv.1 routing_NW.cv.1" vType="cv" speedFactor="0.86" vaporized=""/>
    <tripinfo id="WS.cv.2" depart="72.00" departLane="E0_0" departPos="5.10" departSpeed="14.66" departDelay="0.00" arrival="144.00" arrivalLane="E3_0" arrivalPos="501.31" arrivalSpeed="18.81" duration="72.00" routeLength="995.54" waitingTime="0.00" waitingCount="0" stopTime="0.00" timeLoss="11.54" rerouteNo="0" devices="tripinfo_WS.cv.2 routing_WS.cv.2" vType="cv" speedFactor="0.94" vaporized=""/>
    <tripinfo id="EW.cv.2" depart="81.00" departLane="-E2_1" departPos="5.10" departSpeed="15.96" departDelay="0.00" arrival="145.00" arrivalLane="-E0_1" arrivalPos="500.03" arrivalSpeed="15.96" duration="64.00" routeLength="1001.60" waitingTime="0.00" waitingCount="0" stopTime="0.00" timeLoss="0.68" rerouteNo="0" devices="tripinfo_EW.cv.2 routing_EW.cv.2" vType="cv" speedFactor="1.02" vaporized=""/>
    <tripinfo id="NW.0" depart="84.00" departLane="E1_0" departPos="5.10" departSpeed="21.60" departDelay="0.00" arrival="146.00" arrivalLane="-E0_0" arrivalPos="500.03" arrivalSpeed="15.92" duration="62.00" routeLength="993.70" waitingTime="0.00" waitingCount="0" stopTime="0.00" timeLoss="8.83" rerouteNo="0" devices="tripinfo_NW.0 routing_NW.0" vType="car" speedFactor="1.07" vaporized=""/>
    <tripinfo id="WE.cv.6" depart="82.00" departLane="E0_1" departPos="5.10" departSpeed="15.55" departDelay="0.00" arrival="148.00" arrivalLane="E2_0" arrivalPos="508.36" arrivalSpeed="15.53" duration="66.00" routeLength="1002.59" waitingTime="0.00" waitingCount="0" stopTime="0.00" timeLoss="1.13" rerouteNo="0" devices="tripinfo_WE.cv.6 routing_WE.cv.6" vType="cv" speedFactor="0.99" vaporized=""/>
    <tripinfo id="WE.cv.7" depart="83.00" departLane="E0_0" departPos="5.10" departSpeed="15.88" departDelay="0.00" arrival="149.00" arrivalLane="E2_1" arrivalPos="508.36" arrivalSpeed="15.88" duration="66.00" routeLength="1002.59" waitingTime="0.00" waitingCount="0" stopTime="0.00" timeLoss="2.50" rerouteNo="0" devices="tripinfo_WE.cv.7 routing_WE.cv.7" vType="cv" speedFactor="1.01" vaporized=""/>
    <tripinfo id="SW.cv.2" depart="91.00" departLane="-E3_3" departPos="5.10" departSpeed="19.51" departDelay="0.00" arrival="159.00" arrivalLane="-E0_1" arrivalPos="500.03" arrivalSpeed="15.17" duration="68.00" routeLength="996.18" waitingTime="0.00" waitingCount="0" stopTime="0.00" timeLoss="9.27" rerouteNo="0" devices="tripinfo_SW.cv.2 routing_SW.cv.2" vType="cv" speedFactor="0.97" vaporized=""/>
    <tripinfo id="NW.cv.2" depart="93.00" departLane="E1_0" departPos="5.10" departSpeed="19.61" departDelay="0.00" arrival="159.00" arrivalLane="-E0_0" arrivalPos="500.03" arrivalSpeed="15.26" duration="66.00" routeLength="993.70" waitingTime="0.00" waitingCount="0" stopTime="0.00" timeLoss="7.25" rerouteNo="0" devices="tripinfo_NW.cv.2 routing_NW.cv.2" vType="cv" speedFactor="0.97" vaporized=""/>
    <tripinfo id="NE.cv.2" depart="86.00" departLane="E1_3" departPos="5.10" departSpeed="15.16" departDelay="0.00" arrival="162.00" arrivalLane="E2_1" arrivalPos="508.36" arrivalSpeed="15.34" duration="76.00" routeLength="1002.03" waitingTime="2.00" waitingCount="1" stopTime="0.00" timeLoss="17.10" rerouteNo="0" devices="tripinfo_NE.cv.2 routing_NE.cv.2" vType="cv" speedFactor="0.98" vaporized=""/>
    <tripinfo id="SN.4" depart="65.00" departLane="-E3_1" departPos="5.10" departSpeed="20.19" departDelay="0.00" arrival="163.00" arrivalLane="-E1_1" arrivalPos="498.92" arrivalSpeed="20.19" duration="98.00" routeLength="995.07" waitingTime="36.00" waitingCount="1" stopTime="0.00" timeLoss="48.34" rerouteNo="0" devices="tripinfo_SN.4 routing_SN.4" vType="car" speedFactor="1.00" vaporized=""/>
    <tripinfo id="SN.cv.12" depart="67.00" departLane="-E3_2" departPos="5.10" departSpeed="20.43" departDelay="0.00" arrival="163.00" arrivalLane="-E1_0" arrivalPos="498.92" arrivalSpeed="20.43" duration="96.00" routeLength="995.07" waitingTime="34.00" waitingCount="1" stopTime="0.00" timeLoss="46.68" rerouteNo="0" devices="tripinfo_SN.cv.12 routing_SN.cv.12" vType="cv" speedFactor="1.02" vaporized=""/>
    <tripinfo id="NS.cv.14" depart="81.00" departLane="E1_2" departPos="5.10" departSpeed="20.17" departDelay="0.00" arrival="163.00" arrivalLane="E3_0" arrivalPos="501.31" arrivalSpeed="20.17" duration="82.00" routeLength="994.98" waitingTime="20.00" waitingCount="1" stopTime="0.00" timeLoss="32.44" rerouteNo="0" devices="tripinfo_NS.cv.14 routing_NS.cv.14" vType="cv" speedFactor="1.00" vaporized=""/>
    <tripinfo id="NE.cv.1" depart="85.00" departLane="E1_3" departPos="5.10" departSpeed="17.74" departDelay="0.00" arrival="163.00" arrivalLane="E2_0" arrivalPos="508.36" arrivalSpeed="13.80" duration="78.00" routeLength="1002.03" waitingTime="2.00" waitingCount="1" stopTime="0.00" timeLoss="12.72" rerouteNo="0" devices="tripinfo_NE.cv.1 routing_NE.cv.1" vType="cv" speedFactor="0.88" vaporized=""/>
    <tripinfo id="SW.cv.3" depart="93.00" departLane="-E3_3" departPos="5.10" departSpeed="19.29" departDelay="0.00" arrival="163.00" arrivalLane="-E0_0" arrivalPos="500.03" arrivalSpeed="14.99" duration="70.00" routeLength="996.18" waitingTime="0.00" waitingCount="0" stopTime="0.00" timeLoss="10.21" rerouteNo="0" devices="tripinfo_SW.cv.3 routing_SW.cv.3" vType="cv" speedFactor="0.96" vaporized=""/>
    <tripinfo id="NS.cv.13" depart="78.00" departLane="E1_1" departPos="5.10" departSpeed="18.78" departDelay="0.00" arrival="165.00" arrivalLane="E3_0" arrivalPos="501.31" arrivalSpeed="18.34" duration="87.00" routeLength="994.98" waitingTime="22.00" waitingCount="1" stopTime="0.00" timeLoss="33.69" rerouteNo="0" devices="tripinfo_NS.cv.13 routing_NS.cv.13" vType="cv" speedFactor="0.93" vaporized=""/>