<?xml version="1.0" encoding="UTF-8"?>

<!-- generated on 2023-01-29 19:13:24 by Eclipse SUMO sumo Version 1.13.0
<configuration xmlns:xsi="http://www.w3.org/2001/XMLSchema-instance" xsi:noNamespaceSchemaLocation="http://sumo.dlr.de/xsd/sumoConfiguration.xsd">

    <input>
        <net-file value="data/Eastway-Central.net.xml"/>
        <route-files value="data/Eastway-Central.rou.xml"/>
        <additional-files value="data/Eastway-Central.add.xml"/>
    </input>

    <output>
        <tripinfo-output value="result\2023-01-29-18-56-51\50_tripinfo.xml"/>
    </output>

    <report>
        <no-warnings value="true"/>
        <no-step-log value="true"/>
    </report>

    <traci_server>
        <remote-port value="57988"/>
    </traci_server>

    <random_number>
        <seed value="49"/>
    </random_number>

</configuration>
-->

<tripinfos xmlns:xsi="http://www.w3.org/2001/XMLSchema-instance" xsi:noNamespaceSchemaLocation="http://sumo.dlr.de/xsd/tripinfo_file.xsd">
    <tripinfo id="BNS.0" depart="0.00" departLane="E1_1" departPos="12.10" departSpeed="20.12" departDelay="0.00" arrival="50.00" arrivalLane="E3_0" arrivalPos="501.31" arrivalSpeed="20.12" duration="50.00" routeLength="987.98" waitingTime="0.00" waitingCount="0" stopTime="0.00" timeLoss="0.19" rerouteNo="0" devices="tripinfo_BNS.0 routing_BNS.0" vType="bus" speedFactor="1.00" vaporized=""/>
    <tripinfo id="SN.0" depart="2.00" departLane="-E3_1" departPos="5.10" departSpeed="20.93" departDelay="0.00" arrival="50.00" arrivalLane="-E1_0" arrivalPos="498.92" arrivalSpeed="20.93" duration="48.00" routeLength="995.07" waitingTime="0.00" waitingCount="0" stopTime="0.00" timeLoss="0.08" rerouteNo="0" devices="tripinfo_SN.0 routing_SN.0" vType="car" speedFactor="1.04" vaporized=""/>
    <tripinfo id="SN.1" depart="7.00" departLane="-E3_2" departPos="5.10" departSpeed="22.36" departDelay="0.00" arrival="53.00" arrivalLane="-E1_1" arrivalPos="498.92" arrivalSpeed="22.29" duration="46.00" routeLength="995.07" waitingTime="0.00" waitingCount="0" stopTime="0.00" timeLoss="0.70" rerouteNo="0" devices="tripinfo_SN.1 routing_SN.1" vType="car" speedFactor="1.11" vaporized=""/>
    <tripinfo id="NS.0" depart="2.00" departLane="E1_2" departPos="5.10" departSpeed="18.54" departDelay="0.00" arrival="57.00" arrivalLane="E3_0" arrivalPos="501.31" arrivalSpeed="18.54" duration="55.00" routeLength="994.98" waitingTime="0.00" waitingCount="0" stopTime="0.00" timeLoss="0.45" rerouteNo="0" devices="tripinfo_NS.0 routing_NS.0" vType="car" speedFactor="0.92" vaporized=""/>
    <tripinfo id="SN.2" depart="8.00" departLane="-E3_1" departPos="5.10" departSpeed="20.06" departDelay="0.00" arrival="58.00" arrivalLane="-E1_0" arrivalPos="498.92" arrivalSpeed="20.05" duration="50.00" routeLength="995.07" waitingTime="0.00" waitingCount="0" stopTime="0.00" timeLoss="0.29" rerouteNo="0" devices="tripinfo_SN.2 routing_SN.2" vType="car" speedFactor="1.00" vaporized=""/>
    <tripinfo id="NS.1" depart="5.00" departLane="E1_1" departPos="5.10" departSpeed="19.06" departDelay="0.00" arrival="59.00" arrivalLane="E3_1" arrivalPos="501.31" arrivalSpeed="19.06" duration="54.00" routeLength="994.98" waitingTime="0.00" waitingCount="0" stopTime="0.00" timeLoss="0.92" rerouteNo="0" devices="tripinfo_NS.1 routing_NS.1" vType="car" speedFactor="0.95" vaporized=""/>
    <tripinfo id="EN.0" depart="6.00" departLane="-E2_0" departPos="5.10" departSpeed="16.39" departDelay="0.00" arrival="67.00" arrivalLane="-E1_0" arrivalPos="498.92" arrivalSpeed="21.08" duration="61.00" routeLength="1000.49" waitingTime="0.00" waitingCount="0" stopTime="0.00" timeLoss="6.76" rerouteNo="0" devices="tripinfo_EN.0 routing_EN.0" vType="car" speedFactor="1.05" vaporized=""/>
    <tripinfo id="WS.0" depart="4.00" departLane="E0_0" departPos="5.10" departSpeed="15.76" departDelay="0.00" arrival="69.00" arrivalLane="E3_1" arrivalPos="501.31" arrivalSpeed="20.27" duration="65.00" routeLength="995.54" waitingTime="0.00" waitingCount="0" stopTime="0.00" timeLoss="8.71" rerouteNo="0" devices="tripinfo_WS.0 routing_WS.0" vType="car" speedFactor="1.01" vaporized=""/>
    <tripinfo id="WE.0" depart="2.00" departLane="E0_0" departPos="5.10" departSpeed="17.46" departDelay="0.00" arrival="71.00" arrivalLane="E2_0" arrivalPos="508.36" arrivalSpeed="17.46" duration="69.00" routeLength="1002.59" waitingTime="0.00" waitingCount="0" stopTime="0.00" timeLoss="10.98" rerouteNo="0" devices="tripinfo_WE.0 routing_WE.0" vType="car" speedFactor="1.12" vaporized=""/>
    <tripinfo id="WE.1" depart="4.00" departLane="E0_1" departPos="5.10" departSpeed="16.16" departDelay="0.00" arrival="73.00" arrivalLane="E2_0" arrivalPos="508.36" arrivalSpeed="15.76" duration="69.00" routeLength="1002.59" waitingTime="0.00" waitingCount="0" stopTime="0.00" timeLoss="6.05" rerouteNo="0" devices="tripinfo_WE.1 routing_WE.1" vType="car" speedFactor="1.03" vaporized=""/>
    <tripinfo id="WE.2" depart="8.00" departLane="E0_1" departPos="5.10" departSpeed="17.24" departDelay="0.00" arrival="75.00" arrivalLane="E2_0" arrivalPos="508.36" arrivalSpeed="16.67" duration="67.00" routeLength="1002.59" waitingTime="0.00" waitingCount="0" stopTime="0.00" timeLoss="8.16" rerouteNo="0" devices="tripinfo_WE.2 routing_WE.2" vType="car" speedFactor="1.10" vaporized=""/>
    <tripinfo id="WE.3" depart="13.00" departLane="E0_0" departPos="5.10" departSpeed="16.74" departDelay="0.00" arrival="78.00" arrivalLane="E2_0" arrivalPos="508.36" arrivalSpeed="16.60" duration="65.00" routeLength="1002.59" waitingTime="0.00" waitingCount="0" stopTime="0.00" timeLoss="4.14" rerouteNo="0" devices="tripinfo_WE.3 routing_WE.3" vType="car" speedFactor="1.07" vaporized=""/>
    <tripinfo id="EW.1" depart="14.00" departLane="-E2_0" departPos="5.10" departSpeed="15.85" departDelay="0.00" arrival="78.00" arrivalLane="-E0_0" arrivalPos="500.03" arrivalSpeed="15.85" duration="64.00" routeLength="1001.60" waitingTime="0.00" waitingCount="0" stopTime="0.00" timeLoss="0.52" rerouteNo="0" devices="tripinfo_EW.1 routing_EW.1" vType="car" speedFactor="1.01" vaporized=""/>
    <tripinfo id="EN.1" depart="23.00" departLane="-E2_0" departPos="5.10" departSpeed="16.62" departDelay="0.00" arrival="84.00" arrivalLane="-E1_0" arrivalPos="498.92" arrivalSpeed="21.36" duration="61.00" routeLength="1000.49" waitingTime="0.00" waitingCount="0" stopTime="0.00" timeLoss="7.36" rerouteNo="0" devices="tripinfo_EN.1 routing_EN.1" vType="car" speedFactor="1.06" vaporized=""/>
    <tripinfo id="EW.0" depart="12.00" departLane="-E2_1" departPos="5.10" departSpeed="13.29" departDelay="0.00" arrival="89.00" arrivalLane="-E0_0" arrivalPos="500.03" arrivalSpeed="13.29" duration="77.00" routeLength="1001.60" waitingTime="0.00" waitingCount="0" stopTime="0.00" timeLoss="0.85" rerouteNo="0" devices="tripinfo_EW.0 routing_EW.0" vType="car" speedFactor="0.85" vaporized=""/>
    <tripinfo id="NE.1" depart="13.00" departLane="E1_3" departPos="5.10" departSpeed="22.67" departDelay="0.00" arrival="92.00" arrivalLane="E2_1" arrivalPos="508.36" arrivalSpeed="17.63" duration="79.00" routeLength="1002.03" waitingTime="15.00" waitingCount="1" stopTime="0.00" timeLoss="28.19" rerouteNo="0" devices="tripinfo_NE.1 routing_NE.1" vType="car" speedFactor="1.13" vaporized=""/>
    <tripinfo id="NE.0" depart="8.00" departLane="E1_3" departPos="5.10" departSpeed="20.09" departDelay="0.00" arrival="93.00" arrivalLane="E2_0" arrivalPos="508.36" arrivalSpeed="15.62" duration="85.00" routeLength="1002.03" waitingTime="16.00" waitingCount="1" stopTime="0.00" timeLoss="27.37" rerouteNo="0" devices="tripinfo_NE.0 routing_NE.0" vType="car" speedFactor="1.00" vaporized=""/>
    <tripinfo id="SW.0" depart="9.00" departLane="-E3_3" departPos="5.10" departSpeed="18.92" departDelay="0.00" arrival="94.00" arrivalLane="-E0_0" arrivalPos="500.03" arrivalSpeed="14.71" duration="85.00" routeLength="996.18" waitingTime="14.00" waitingCount="1" stopTime="0.00" timeLoss="24.78" rerouteNo="0" devices="tripinfo_SW.0 routing_SW.0" vType="car" speedFactor="0.94" vaporized=""/>
    <tripinfo id="NS.2" depart="11.00" departLane="E1_1" departPos="5.10" departSpeed="20.85" departDelay="0.00" arrival="96.00" arrivalLane="E3_0" arrivalPos="501.31" arrivalSpeed="20.85" duration="85.00" routeLength="994.98" waitingTime="23.00" waitingCount="1" stopTime="0.00" timeLoss="36.38" rerouteNo="0" devices="tripinfo_NS.2 routing_NS.2" vType="car" speedFactor="1.04" vaporized=""/>
    <tripinfo id="NS.3" depart="17.00" departLane="E1_1" departPos="5.10" departSpeed="19.16" departDelay="0.00" arrival="98.00" arrivalLane="E3_1" arrivalPos="501.31" arrivalSpeed="18.97" duration="81.00" routeLength="994.98" waitingTime="16.00" waitingCount="1" stopTime="0.00" timeLoss="28.38" rerouteNo="0" devices="tripinfo_NS.3 routing_NS.3" vType="car" speedFactor="0.95" vaporized=""/>
    <tripinfo id="NE.3" depart="23.00" departLane="E1_3" departPos="5.10" departSpeed="21.20" departDelay="0.00" arrival="99.00" arrivalLane="E2_1" arrivalPos="508.36" arrivalSpeed="16.49" duration="76.00" routeLength="1002.03" waitingTime="7.00" waitingCount="1" stopTime="0.00" timeLoss="21.23" rerouteNo="0" devices="tripinfo_NE.3 routing_NE.3" vType="car" speedFactor="1.05" vaporized=""/>
    <tripinfo id="NE.2" depart="16.00" departLane="E1_3" departPos="5.10" departSpeed="18.74" departDelay="0.00" arrival="100.00" arrivalLane="E2_0" arrivalPos="508.36" arrivalSpeed="14.58" duration="84.00" routeLength="1002.03" waitingTime="9.00" waitingCount="1" stopTime="0.00" timeLoss="22.17" rerouteNo="0" devices="tripinfo_NE.2 routing_NE.2" vType="car" speedFactor="0.93" vaporized=""/>
    <tripinfo id="NS.4" depart="22.00" departLane="E1_2" departPos="5.10" departSpeed="18.80" departDelay="0.00" arrival="100.00" arrivalLane="E3_1" arrivalPos="501.31" arrivalSpeed="18.53" duration="78.00" routeLength="994.98" waitingTime="12.00" waitingCount="1" stopTime="0.00" timeLoss="25.04" rerouteNo="0" devices="tripinfo_NS.4 routing_NS.4" vType="car" speedFactor="0.93" vaporized=""/>
    <tripinfo id="NS.5" depart="23.00" departLane="E1_1" departPos="5.10" departSpeed="20.64" departDelay="0.00" arrival="100.00" arrivalLane="E3_0" arrivalPos="501.31" arrivalSpeed="19.87" duration="77.00" routeLength="994.98" waitingTime="11.00" waitingCount="1" stopTime="0.00" timeLoss="28.28" rerouteNo="0" devices="tripinfo_NS.5 routing_NS.5" vType="car" speedFactor="1.03" vaporized=""/>
    <tripinfo id="NE.4" depart="34.00" departLane="E1_3" departPos="5.10" departSpeed="21.32" departDelay="0.00" arrival="102.00" arrivalLane="E2_1" arrivalPos="508.36" arrivalSpeed="16.49" duration="68.00" routeLength="1002.03" waitingTime="0.00" waitingCount="0" stopTime="0.00" timeLoss="13.56" rerouteNo="0" devices="tripinfo_NE.4 routing_NE.4" vType="car" speedFactor="1.06" vaporized=""/>
    <tripinfo id="NS.6" depart="28.00" departLane="E1_2" departPos="5.10" departSpeed="20.41" departDelay="0.00" arrival="103.00" arrivalLane="E3_1" arrivalPos="501.31" arrivalSpeed="19.94" duration="75.00" routeLength="994.98" waitingTime="9.00" waitingCount="1" stopTime="0.00" timeLoss="25.35" rerouteNo="0" devices="tripinfo_NS.6 routing_NS.6" vType="car" speedFactor="1.01" vaporized=""/>
    <tripinfo id="NS.8" depart="35.00" departLane="E1_1" departPos="5.10" departSpeed="19.52" departDelay="0.00" arrival="103.00" arrivalLane="E3_0" arrivalPos="501.31" arrivalSpeed="19.28" duration="68.00" routeLength="994.98" waitingTime="0.00" waitingCount="0" stopTime="0.00" timeLoss="16.22" rerouteNo="0" devices="tripinfo_NS.8 routing_NS.8" vType="car" speedFactor="0.97" vaporized=""/>
    <tripinfo id="NS.7" depart="32.00" departLane="E1_1" departPos="5.10" departSpeed="24.39" departDelay="0.00" arrival="104.00" arrivalLane="E3_1" arrivalPos="501.31" arrivalSpeed="20.55" duration="72.00" routeLength="994.98" waitingTime="9.00" waitingCount="1" stopTime="0.00" timeLoss="30.95" rerouteNo="0" devices="tripinfo_NS.7 routing_NS.7" vType="car" speedFactor="1.21" vaporized=""/>
    <tripinfo id="SN.4" depart="21.00" departLane="-E3_1" departPos="5.10" departSpeed="19.96" departDelay="0.00" arrival="105.00" arrivalLane="-E1_1" arrivalPos="498.92" arrivalSpeed="19.95" duration="84.00" routeLength="995.07" waitingTime="20.00" waitingCount="1" stopTime="0.00" timeLoss="34.00" rerouteNo="0" devices="tripinfo_SN.4 routing_SN.4" vType="car" speedFactor="0.99" vaporized=""/>
    <tripinfo id="NE.5" depart="36.00" departLane="E1_3" departPos="5.10" departSpeed="20.37" departDelay="0.00" arrival="105.00" arrivalLane="E2_0" arrivalPos="508.36" arrivalSpeed="15.83" duration="69.00" routeLength="1002.03" waitingTime="0.00" waitingCount="0" stopTime="0.00" timeLoss="11.70" rerouteNo="0" devices="tripinfo_NE.5 routing_NE.5" vType="car" speedFactor="1.01" vaporized=""/>
    <tripinfo id="SN.3" depart="12.00" departLane="-E3_2" departPos="5.10" departSpeed="19.63" departDelay="0.00" arrival="106.00" arrivalLane="-E1_0" arrivalPos="498.92" arrivalSpeed="19.63" duration="94.00" routeLength="995.07" waitingTime="30.00" waitingCount="1" stopTime="0.00" timeLoss="42.51" rerouteNo="0" devices="tripinfo_SN.3 routing_SN.3" vType="car" speedFactor="0.98" vaporized=""/>
    <tripinfo id="NS.9" depart="41.00" departLane="E1_2" departPos="5.10" departSpeed="18.52" departDelay="0.00" arrival="106.00" arrivalLane="E3_0" arrivalPos="501.31" arrivalSpeed="18.44" duration="65.00" routeLength="994.98" waitingTime="0.00" waitingCount="0" stopTime="0.00" timeLoss="10.93" rerouteNo="0" devices="tripinfo_NS.9 routing_NS.9" vType="car" speedFactor="0.92" vaporized=""/>
    <tripinfo id="NS.10" depart="43.00" departLane="E1_1" departPos="5.10" departSpeed="20.26" departDelay="0.00" arrival="107.00" arrivalLane="E3_1" arrivalPos="501.31" arrivalSpeed="19.90" duration="64.00" routeLength="994.98" waitingTime="0.00" waitingCount="0" stopTime="0.00" timeLoss="13.93" rerouteNo="0" devices="tripinfo_NS.10 routing_NS.10" vType="car" speedFactor="1.01" vaporized=""/>
    <tripinfo id="SN.5" depart="27.00" departLane="-E3_2" departPos="5.10" departSpeed="20.32" departDelay="0.00" arrival="108.00" arrivalLane="-E1_1" arrivalPos="498.92" arrivalSpeed="20.14" duration="81.00" routeLength="995.07" waitingTime="18.00" waitingCount="1" stopTime="0.00" timeLoss="31.77" rerouteNo="0" devices="tripinfo_SN.5 routing_SN.5" vType="car" speedFactor="1.01" vaporized=""/>
    <tripinfo id="NS.11" depart="46.00" departLane="E1_1" departPos="5.10" departSpeed="23.41" departDelay="0.00" arrival="108.00" arrivalLane="E3_1" arrivalPos="501.31" arrivalSpeed="20.41" duration="62.00" routeLength="994.98" waitingTime="0.00" waitingCount="0" stopTime="0.00" timeLoss="19.26" rerouteNo="0" devices="tripinfo_NS.11 routing_NS.11" vType="car" speedFactor="1.16" vaporized=""/>
    <tripinfo id="SE.0" depart="48.00" departLane="-E3_0" departPos="5.10" departSpeed="21.64" departDelay="0.00" arrival="108.00" arrivalLane="E2_0" arrivalPos="508.36" arrivalSpeed="16.76" duration="60.00" routeLength="1004.51" waitingTime="0.00" waitingCount="0" stopTime="0.00" timeLoss="6.82" rerouteNo="0" devices="tripinfo_SE.0 routing_SE.0" vType="car" speedFactor="1.08" vaporized=""/>
    <tripinfo id="SN.6" depart="28.00" departLane="-E3_1" departPos="5.10" departSpeed="19.89" departDelay="0.00" arrival="109.00" arrivalLane="-E1_0" arrivalPos="498.92" arrivalSpeed="19.74" duration="81.00" routeLength="995.07" waitingTime="16.00" waitingCount="1" stopTime="0.00" timeLoss="30.18" rerouteNo="0" devices="tripinfo_SN.6 routing_SN.6" vType="car" speedFactor="0.99" vaporized=""/>
    <tripinfo id="SN.7" depart="31.00" departLane="-E3_2" departPos="5.10" departSpeed="21.58" departDelay="0.00" arrival="110.00" arrivalLane="-E1_1" arrivalPos="498.92" arrivalSpeed="20.76" duration="79.00" routeLength="995.07" waitingTime="16.00" waitingCount="1" stopTime="0.00" timeLoss="32.74" rerouteNo="0" devices="tripinfo_SN.7 routing_SN.7" vType="car" speedFactor="1.07" vaporized=""/>
    <tripinfo id="NS.12" depart="48.00" departLane="E1_1" departPos="5.10" departSpeed="24.15" departDelay="0.00" arrival="110.00" arrivalLane="E3_1" arrivalPos="501.31" arrivalSpeed="21.51" duration="62.00" routeLength="994.98" waitingTime="0.00" waitingCount="0" stopTime="0.00" timeLoss="20.22" rerouteNo="0" devices="tripinfo_NS.12 routing_NS.12" vType="car" speedFactor="1.20" vaporized=""/>
    <tripinfo id="SN.10" depart="43.00" departLane="-E3_1" departPos="5.10" departSpeed="21.06" departDelay="0.00" arrival="111.00" arrivalLane="-E1_0" arrivalPos="498.92" arrivalSpeed="20.32" duration="68.00" routeLength="995.07" waitingTime="3.00" waitingCount="1" stopTime="0.00" timeLoss="20.13" rerouteNo="0" devices="tripinfo_SN.10 routing_SN.10" vType="car" speedFactor="1.05" vaporized=""/>
    <tripinfo id="NS.14" depart="61.00" departLane="E1_2" departPos="5.10" departSpeed="21.77" departDelay="0.00" arrival="112.00" arrivalLane="E3_1" arrivalPos="501.31" arrivalSpeed="20.98" duration="51.00" routeLength="994.98" waitingTime="0.00" waitingCount="0" stopTime="0.00" timeLoss="4.95" rerouteNo="0" devices="tripinfo_NS.14 routing_NS.14" vType="car" speedFactor="1.08" vaporized=""/>
    <tripinfo id="SN.8" depart="34.00" departLane="-E3_1" departPos="5.10" departSpeed="19.41" departDelay="0.00" arrival="113.00" arrivalLane="-E1_1" arrivalPos="498.92" arrivalSpeed="19.28" duration="79.00" routeLength="995.07" waitingTime="13.00" waitingCount="1" stopTime="0.00" timeLoss="27.64" rerouteNo="0" devices="tripinfo_SN.8 routing_SN.8" vType="car" speedFactor="0.96" vaporized=""/>
    <tripinfo id="SN.12" depart="46.00" departLane="-E3_1" departPos="5.10" departSpeed="23.67" departDelay="0.00" arrival="113.00" arrivalLane="-E1_0" arrivalPos="498.92" arrivalSpeed="21.62" duration="67.00" routeLength="995.07" waitingTime="3.00" waitingCount="1" stopTime="0.00" timeLoss="24.10" rerouteNo="0" devices="tripinfo_SN.12 routing_SN.12" vType="car" speedFactor="1.18" vaporized=""/>
    <tripinfo id="NS.13" depart="53.00" departLane="E1_1" departPos="5.10" departSpeed="17.13" departDelay="0.00" arrival="114.00" arrivalLane="E3_0" arrivalPos="501.31" arrivalSpeed="17.13" duration="61.00" routeLength="994.98" waitingTime="0.00" waitingCount="0" stopTime="0.00" timeLoss="2.75" rerouteNo="0" devices="tripinfo_NS.13 routing_NS.13" vType="car" speedFactor="0.85" vaporized=""/>
    <tripinfo id="SN.9" depart="39.00" departLane="-E3_2" departPos="5.10" departSpeed="20.54" departDelay="0.00" arrival="116.00" arrivalLane="-E1_1" arrivalPos="498.92" arrivalSpeed="20.12" duration="77.00" routeLength="995.07" waitingTime="10.00" waitingCount="1" stopTime="0.00" timeLoss="27.61" rerouteNo="0" devices="tripinfo_SN.9 routing_SN.9" vType="car" speedFactor="1.02" vaporized=""/>
    <tripinfo id="SN.14" depart="48.00" departLane="-E3_1" departPos="5.10" departSpeed="18.64" departDelay="0.00" arrival="116.00" arrivalLane="-E1_0" arrivalPos="498.92" arrivalSpeed="18.57" duration="68.00" routeLength="995.07" waitingTime="0.00" waitingCount="0" stopTime="0.00" timeLoss="14.12" rerouteNo="0" devices="tripinfo_SN.14 routing_SN.14" vType="car" speedFactor="0.93" vaporized=""/>
    <tripinfo id="SN.11" depart="45.00" departLane="-E3_2" departPos="5.10" departSpeed="23.27" departDelay="0.00" arrival="117.00" arrivalLane="-E1_1" arrivalPos="498.92" arrivalSpeed="20.42" duration="72.00" routeLength="995.07" waitingTime="8.00" waitingCount="1" stopTime="0.00" timeLoss="29.04" rerouteNo="0" devices="tripinfo_SN.11 routing_SN.11" vType="car" speedFactor="1.16" vaporized=""/>
    <tripinfo id="SN.13" depart="47.00" departLane="-E3_2" departPos="5.10" departSpeed="22.88" departDelay="0.00" arrival="119.00" arrivalLane="-E1_1" arrivalPos="498.92" arrivalSpeed="20.99" duration="72.00" routeLength="995.07" waitingTime="7.00" waitingCount="1" stopTime="0.00" timeLoss="28.03" rerouteNo="0" devices="tripinfo_SN.13 routing_SN.13" vType="car" speedFactor="1.14" vaporized=""/>
    <tripinfo id="SE.1" depart="58.00" departLane="-E3_0" departPos="5.10" departSpeed="21.32" departDelay="0.00" arrival="120.00" arrivalLane="E2_0" arrivalPos="508.36" arrivalSpeed="16.58" duration="62.00" routeLength="1004.51" waitingTime="0.00" waitingCount="0" stopTime="0.00" timeLoss="7.08" rerouteNo="0" devices="tripinfo_SE.1 routing_SE.1" vType="car" speedFactor="1.06" vaporized=""/>
    <tripinfo id="SN.15" depart="56.00" departLane="-E3_2" departPos="5.10" departSpeed="22.04" departDelay="0.00" arrival="121.00" arrivalLane="-E1_1" arrivalPos="498.92" arrivalSpeed="20.72" duration="65.00" routeLength="995.07" waitingTime="0.00" waitingCount="0" stopTime="0.00" timeLoss="19.24" rerouteNo="0" devices="tripinfo_SN.15 routing_SN.15" vType="car" speedFactor="1.10" vaporized=""/>
    <tripinfo id="SN.16" depart="60.00" departLane="-E3_1" departPos="5.10" departSpeed="16.77" departDelay="0.00" arrival="121.00" arrivalLane="-E1_0" arrivalPos="498.92" arrivalSpeed="16.76" duration="61.00" routeLength="995.07" waitingTime="0.00" waitingCount="0" stopTime="0.00" timeLoss="1.46" rerouteNo="0" devices="tripinfo_SN.16 routing_SN.16" vType="car" speedFactor="0.83" vaporized=""/>
    <tripinfo id="NS.15" depart="72.00" departLane="E1_1" departPos="5.10" departSpeed="20.97" departDelay="0.00" arrival="122.00" arrivalLane="E3_1" arrivalPos="501.31" arrivalSpeed="20.97" duration="50.00" routeLength="994.98" waitingTime="0.00" waitingCount="0" stopTime="0.00" timeLoss="1.57" rerouteNo="0" devices="tripinfo_NS.15 routing_NS.15" vType="car" speedFactor="1.04" vaporized=""/>
    <tripinfo id="SN.17" depart="61.00" departLane="-E3_2" departPos="5.10" departSpeed="19.65" departDelay="0.00" arrival="123.00" arrivalLane="-E1_1" arrivalPos="498.92" arrivalSpeed="19.23" duration="62.00" routeLength="995.07" waitingTime="0.00" waitingCount="0" stopTime="0.00" timeLoss="11.17" rerouteNo="0" devices="tripinfo_SN.17 routing_SN.17" vType="car" speedFactor="0.98" vaporized=""/>
    <tripinfo id="SN.18" depart="64.00" departLane="-E3_1" departPos="5.10" departSpeed="21.66" departDelay="0.00" arrival="123.00" arrivalLane="-E1_0" arrivalPos="498.92" arrivalSpeed="19.40" duration="59.00" routeLength="995.07" waitingTime="0.00" waitingCount="0" stopTime="0.00" timeLoss="12.51" rerouteNo="0" devices="tripinfo_SN.18 routing_SN.18" vType="car" speedFactor="1.08" vaporized=""/>
    <tripinfo id="SN.19" depart="65.00" departLane="-E3_2" departPos="5.10" departSpeed="22.51" departDelay="0.00" arrival="125.00" arrivalLane="-E1_1" arrivalPos="498.92" arrivalSpeed="20.68" duration="60.00" routeLength="995.07" waitingTime="0.00" waitingCount="0" stopTime="0.00" timeLoss="15.34" rerouteNo="0" devices="tripinfo_SN.19 routing_SN.19" vType="car" speedFactor="1.12" vaporized=""/>
    <tripinfo id="SN.20" depart="66.00" departLane="-E3_1" departPos="5.10" departSpeed="17.51" departDelay="0.00" arrival="126.00" arrivalLane="-E1_0" arrivalPos="498.92" arrivalSpeed="17.40" duration="60.00" routeLength="995.07" waitingTime="0.00" waitingCount="0" stopTime="0.00" timeLoss="2.57" rerouteNo="0" devices="tripinfo_SN.20 routing_SN.20" vType="car" speedFactor="0.87" vaporized=""/>
    <tripinfo id="SN.21" depart="67.00" departLane="-E3_2" departPos="5.10" departSpeed="19.14" departDelay="0.00" arrival="128.00" arrivalLane="-E1_1" arrivalPos="498.92" arrivalSpeed="18.94" duration="61.00" routeLength="995.07" waitingTime="0.00" waitingCount="0" stopTime="0.00" timeLoss="8.07" rerouteNo="0" devices="tripinfo_SN.21 routing_SN.21" vType="car" speedFactor="0.95" vaporized=""/>
    <tripinfo id="SE.2" depart="61.00" departLane="-E3_0" departPos="5.10" departSpeed="19.51" departDelay="0.00" arrival="130.00" arrivalLane="E2_0" arrivalPos="508.36" arrivalSpeed="15.18" duration="69.00" routeLength="1004.51" waitingTime="0.00" waitingCount="0" stopTime="0.00" timeLoss="9.62" rerouteNo="0" devices="tripinfo_SE.2 routing_SE.2" vType="car" speedFactor="0.97" vaporized=""/>
    <tripinfo id="SN.22" depart="68.00" departLane="-E3_1" departPos="5.10" departSpeed="18.21" departDelay="0.00" arrival="130.00" arrivalLane="-E1_1" arrivalPos="498.92" arrivalSpeed="19.41" duration="62.00" routeLength="995.07" waitingTime="0.00" waitingCount="0" stopTime="0.00" timeLoss="11.92" rerouteNo="0" devices="tripinfo_SN.22 routing_SN.22" vType="car" speedFactor="1.01" vaporized=""/>
    <tripinfo id="SN.24" depart="73.00" departLane="-E3_1" departPos="5.10" departSpeed="20.79" departDelay="0.00" arrival="130.00" arrivalLane="-E1_0" arrivalPos="498.92" arrivalSpeed="18.87" duration="57.00" routeLength="995.07" waitingTime="0.00" waitingCount="0" stopTime="0.00" timeLoss="8.83" rerouteNo="0" devices="tripinfo_SN.24 routing_SN.24" vType="car" speedFactor="1.03" vaporized=""/>
    <tripinfo id="SN.23" depart="72.00" departLane="-E3_2" departPos="5.10" departSpeed="23.40" departDelay="0.00" arrival="131.00" arrivalLane="-E1_1" arrivalPos="498.92" arrivalSpeed="19.75" duration="59.00" routeLength="995.07" waitingTime="0.00" waitingCount="0" stopTime="0.00" timeLoss="16.22" rerouteNo="0" devices="tripinfo_SN.23 routing_SN.23" vType="car" speedFactor="1.16" vaporized=""/>
    <tripinfo id="SN.25" depart="74.00" departLane="-E3_2" departPos="5.10" departSpeed="19.86" departDelay="0.00" arrival="133.00" arrivalLane="-E1_1" arrivalPos="498.92" arrivalSpeed="19.05" duration="59.00" routeLength="995.07" waitingTime="0.00" waitingCount="0" stopTime="0.00" timeLoss="8.67" rerouteNo="0" devices="tripinfo_SN.25 routing_SN.25" vType="car" speedFactor="0.99" vaporized=""/>
    <tripinfo id="NS.16" depart="76.00" departLane="E1_2" departPos="5.10" departSpeed="18.82" departDelay="0.00" arrival="133.00" arrivalLane="E3_0" arrivalPos="501.31" arrivalSpeed="18.82" duration="57.00" routeLength="994.98" waitingTime="0.00" waitingCount="0" stopTime="0.00" timeLoss="3.29" rerouteNo="0" devices="tripinfo_NS.16 routing_NS.16" vType="car" speedFactor="0.94" vaporized=""/>
    <tripinfo id="SN.26" depart="76.00" departLane="-E3_1" departPos="5.10" departSpeed="20.97" departDelay="0.00" arrival="135.00" arrivalLane="-E1_1" arrivalPos="498.92" arrivalSpeed="19.65" duration="59.00" routeLength="995.07" waitingTime="0.00" waitingCount="0" stopTime="0.00" timeLoss="11.16" rerouteNo="0" devices="tripinfo_SN.26 routing_SN.26" vType="car" speedFactor="1.04" vaporized=""/>
    <tripinfo id="NS.17" depart="78.00" departLane="E1_1" departPos="5.10" departSpeed="19.48" departDelay="0.00" arrival="135.00" arrivalLane="E3_1" arrivalPos="501.31" arrivalSpeed="19.48" duration="57.00" routeLength="994.98" waitingTime="0.00" waitingCount="0" stopTime="0.00" timeLoss="5.18" rerouteNo="0" devices="tripinfo_NS.17 routing_NS.17" vType="car" speedFactor="0.97" vaporized=""/>
    <tripinfo id="SN.27" depart="78.00" departLane="-E3_2" departPos="5.10" departSpeed="21.72" departDelay="0.00" arrival="137.00" arrivalLane="-E1_0" arrivalPos="498.92" arrivalSpeed="20.53" duration="59.00" routeLength="995.07" waitingTime="0.00" waitingCount="0" stopTime="0.00" timeLoss="12.50" rerouteNo="0" devices="tripinfo_SN.27 routing_SN.27" vType="car" speedFactor="1.08" vaporized=""/>
    <tripinfo id="SE.9" depart="105.00" departLane="-E3_0" departPos="5.10" departSpeed="21.20" departDelay="0.00" arrival="137.00" arrivalLane="E2_0" arrivalPos="508.36" arrivalSpeed="5.38" duration="32.00" routeLength="1004.51" waitingTime="0.00" waitingCount="0" stopTime="0.00" timeLoss="8.43" rerouteNo="0" devices="tripinfo_SE.9 routing_SE.9" vType="car" speedFactor="1.05" vaporized="teleport"/>
    <tripinfo id="WN.1" depart="12.00" departLane="E0_3" departPos="5.10" departSpeed="18.63" departDelay="0.00" arrival="140.00" arrivalLane="-E1_1" arrivalPos="498.92" arrivalSpeed="23.79" duration="128.00" routeLength="993.15" waitingTime="66.00" waitingCount="1" stopTime="0.00" timeLoss="79.85" rerouteNo="0" devices="tripinfo_WN.1 routing_WN.1" vType="car" speedFactor="1.19" vaporized=""/>
    <tripinfo id="ES.0" depart="9.00" departLane="-E2_2" departPos="5.10" departSpeed="17.38" departDelay="0.00" arrival="141.00" arrivalLane="E3_1" arrivalPos="501.31" arrivalSpeed="22.32" duration="132.00" routeLength="1002.88" waitingTime="67.00" waitingCount="1" stopTime="0.00" timeLoss="79.72" rerouteNo="0" devices="tripinfo_ES.0 routing_ES.0" vType="car" speedFactor="1.11" vaporized=""/>
    <tripinfo id="WN.3" depart="51.00" departLane="E0_3" departPos="5.10" departSpeed="18.92" departDelay="0.00" arrival="142.00" arrivalLane="-E1_1" arrivalPos="498.92" arrivalSpeed="23.69" duration="91.00" routeLength="993.15" waitingTime="29.00" waitingCount="1" stopTime="0.00" timeLoss="44.01" rerouteNo="0" devices="tripinfo_WN.3 routing_WN.3" vType="car" speedFactor="1.21" vaporized=""/>
    <tripinfo id="ES.1" depart="19.00" departLane="-E2_3" departPos="5.10" departSpeed="13.79" departDelay="0.00" arrival="145.00" arrivalLane="E3_0" arrivalPos="501.31" arrivalSpeed="17.73" duration="126.00" routeLength="1002.88" waitingTime="50.00" waitingCount="1" stopTime="0.00" timeLoss="61.32" rerouteNo="0" devices="tripinfo_ES.1 routing_ES.1" vType="car" speedFactor="0.88" vaporized=""/>
    <tripinfo id="ES.3" depart="43.00" departLane="-E2_2" departPos="5.10" departSpeed="17.03" departDelay="0.00" arrival="146.00" arrivalLane="E3_1" arrivalPos="501.31" arrivalSpeed="21.79" duration="103.00" routeLength="1002.88" waitingTime="34.00" waitingCount="1" stopTime="0.00" timeLoss="50.15" rerouteNo="0" devices="tripinfo_ES.3 routing_ES.3" vType="car" speedFactor="1.09" vaporized=""/>
    <tripinfo id="WN.0" depart="0.00" departLane="E0_2" departPos="5.10" departSpeed="12.69" departDelay="0.00" arrival="147.00" arrivalLane="-E1_0" arrivalPos="498.92" arrivalSpeed="16.31" duration="147.00" routeLength="993.15" waitingTime="67.00" waitingCount="1" stopTime="0.00" timeLoss="77.23" rerouteNo="0" devices="tripinfo_WN.0 routing_WN.0" vType="car" speedFactor="0.81" vaporized=""/>