<?xml version="1.0" encoding="UTF-8"?>

<!-- generated on 2023-01-30 10:48:45 by Eclipse SUMO sumo Version 1.13.0
<configuration xmlns:xsi="http://www.w3.org/2001/XMLSchema-instance" xsi:noNamespaceSchemaLocation="http://sumo.dlr.de/xsd/sumoConfiguration.xsd">

    <input>
        <net-file value="data/Eastway-Central.net.xml"/>
        <route-files value="data/cav60.rou.xml"/>
        <additional-files value="data/Eastway-Central.add.xml"/>
    </input>

    <output>
        <tripinfo-output value="result\2023-01-30-10-38-29\36_tripinfo.xml"/>
    </output>

    <report>
        <no-warnings value="true"/>
        <no-step-log value="true"/>
    </report>

    <traci_server>
        <remote-port value="51115"/>
    </traci_server>

    <random_number>
        <seed value="35"/>
    </random_number>

</configuration>
-->

<tripinfos xmlns:xsi="http://www.w3.org/2001/XMLSchema-instance" xsi:noNamespaceSchemaLocation="http://sumo.dlr.de/xsd/tripinfo_file.xsd">
    <tripinfo id="BNS.0" depart="0.00" departLane="E1_1" departPos="12.10" departSpeed="20.12" departDelay="0.00" arrival="50.00" arrivalLane="E3_0" arrivalPos="501.31" arrivalSpeed="20.12" duration="50.00" routeLength="987.98" waitingTime="0.00" waitingCount="0" stopTime="0.00" timeLoss="0.19" rerouteNo="0" devices="tripinfo_BNS.0 routing_BNS.0" vType="bus" speedFactor="1.00" vaporized=""/>
    <tripinfo id="SN.0" depart="8.00" departLane="-E3_1" departPos="5.10" departSpeed="21.43" departDelay="0.00" arrival="55.00" arrivalLane="-E1_0" arrivalPos="498.92" arrivalSpeed="21.43" duration="47.00" routeLength="995.07" waitingTime="0.00" waitingCount="0" stopTime="0.00" timeLoss="0.01" rerouteNo="0" devices="tripinfo_SN.0 routing_SN.0" vType="car" speedFactor="1.07" vaporized=""/>
    <tripinfo id="NS.0" depart="2.00" departLane="E1_2" departPos="5.10" departSpeed="17.73" departDelay="0.00" arrival="59.00" arrivalLane="E3_1" arrivalPos="501.31" arrivalSpeed="17.73" duration="57.00" routeLength="994.98" waitingTime="0.00" waitingCount="0" stopTime="0.00" timeLoss="0.04" rerouteNo="0" devices="tripinfo_NS.0 routing_NS.0" vType="car" speedFactor="0.88" vaporized=""/>
    <tripinfo id="NS.cv.0" depart="3.00" departLane="E1_1" departPos="5.10" departSpeed="18.51" departDelay="0.00" arrival="60.00" arrivalLane="E3_0" arrivalPos="501.31" arrivalSpeed="18.07" duration="57.00" routeLength="994.98" waitingTime="0.00" waitingCount="0" stopTime="0.00" timeLoss="2.40" rerouteNo="0" devices="tripinfo_NS.cv.0 routing_NS.cv.0" vType="cv" speedFactor="0.92" vaporized=""/>
    <tripinfo id="SN.1" depart="9.00" departLane="-E3_2" departPos="5.10" departSpeed="19.77" departDelay="0.00" arrival="60.00" arrivalLane="-E1_0" arrivalPos="498.92" arrivalSpeed="19.76" duration="51.00" routeLength="995.07" waitingTime="0.00" waitingCount="0" stopTime="0.00" timeLoss="0.47" rerouteNo="0" devices="tripinfo_SN.1 routing_SN.1" vType="car" speedFactor="0.98" vaporized=""/>
    <tripinfo id="SE.cv.0" depart="6.00" departLane="-E3_0" departPos="5.10" departSpeed="23.39" departDelay="0.00" arrival="63.00" arrivalLane="E2_0" arrivalPos="508.36" arrivalSpeed="18.19" duration="57.00" routeLength="1004.51" waitingTime="0.00" waitingCount="0" stopTime="0.00" timeLoss="7.53" rerouteNo="0" devices="tripinfo_SE.cv.0 routing_SE.cv.0" vType="cv" speedFactor="1.16" vaporized=""/>
    <tripinfo id="WS.0" depart="9.00" departLane="E0_0" departPos="5.10" departSpeed="17.58" departDelay="0.00" arrival="67.00" arrivalLane="E3_1" arrivalPos="501.31" arrivalSpeed="22.59" duration="58.00" routeLength="995.54" waitingTime="0.00" waitingCount="0" stopTime="0.00" timeLoss="7.67" rerouteNo="0" devices="tripinfo_WS.0 routing_WS.0" vType="car" speedFactor="1.12" vaporized=""/>
    <tripinfo id="WE.cv.0" depart="3.00" departLane="E0_0" departPos="5.10" departSpeed="17.09" departDelay="0.00" arrival="71.00" arrivalLane="E2_0" arrivalPos="508.36" arrivalSpeed="17.09" duration="68.00" routeLength="1002.59" waitingTime="0.00" waitingCount="0" stopTime="0.00" timeLoss="9.26" rerouteNo="0" devices="tripinfo_WE.cv.0 routing_WE.cv.0" vType="cv" speedFactor="1.09" vaporized=""/>
    <tripinfo id="WE.0" depart="7.00" departLane="E0_1" departPos="5.10" departSpeed="16.26" departDelay="0.00" arrival="75.00" arrivalLane="E2_0" arrivalPos="508.36" arrivalSpeed="16.26" duration="68.00" routeLength="1002.59" waitingTime="0.00" waitingCount="0" stopTime="0.00" timeLoss="5.79" rerouteNo="0" devices="tripinfo_WE.0 routing_WE.0" vType="car" speedFactor="1.04" vaporized=""/>
    <tripinfo id="EN.0" depart="6.00" departLane="-E2_0" departPos="5.10" departSpeed="14.08" departDelay="0.00" arrival="76.00" arrivalLane="-E1_0" arrivalPos="498.92" arrivalSpeed="18.11" duration="70.00" routeLength="1000.49" waitingTime="0.00" waitingCount="0" stopTime="0.00" timeLoss="6.26" rerouteNo="0" devices="tripinfo_EN.0 routing_EN.0" vType="car" speedFactor="0.90" vaporized=""/>
    <tripinfo id="EN.cv.0" depart="12.00" departLane="-E2_0" departPos="5.10" departSpeed="15.73" departDelay="0.00" arrival="77.00" arrivalLane="-E1_1" arrivalPos="498.92" arrivalSpeed="20.23" duration="65.00" routeLength="1000.49" waitingTime="0.00" waitingCount="0" stopTime="0.00" timeLoss="7.62" rerouteNo="0" devices="tripinfo_EN.cv.0 routing_EN.cv.0" vType="cv" speedFactor="1.01" vaporized=""/>
    <tripinfo id="EW.cv.0" depart="13.00" departLane="-E2_1" departPos="5.10" departSpeed="14.78" departDelay="0.00" arrival="83.00" arrivalLane="-E0_0" arrivalPos="500.03" arrivalSpeed="14.78" duration="70.00" routeLength="1001.60" waitingTime="0.00" waitingCount="0" stopTime="0.00" timeLoss="1.90" rerouteNo="0" devices="tripinfo_EW.cv.0 routing_EW.cv.0" vType="cv" speedFactor="0.94" vaporized=""/>
    <tripinfo id="WE.cv.1" depart="11.00" departLane="E0_1" departPos="5.10" departSpeed="13.82" departDelay="0.00" arrival="85.00" arrivalLane="E2_0" arrivalPos="508.36" arrivalSpeed="13.82" duration="74.00" routeLength="1002.59" waitingTime="0.00" waitingCount="0" stopTime="0.00" timeLoss="0.62" rerouteNo="0" devices="tripinfo_WE.cv.1 routing_WE.cv.1" vType="cv" speedFactor="0.88" vaporized=""/>
    <tripinfo id="SW.0" depart="22.00" departLane="-E3_3" departPos="5.10" departSpeed="20.87" departDelay="0.00" arrival="90.00" arrivalLane="-E0_0" arrivalPos="500.03" arrivalSpeed="16.24" duration="68.00" routeLength="996.18" waitingTime="2.00" waitingCount="1" stopTime="0.00" timeLoss="13.40" rerouteNo="0" devices="tripinfo_SW.0 routing_SW.0" vType="car" speedFactor="1.04" vaporized=""/>
    <tripinfo id="SE.cv.1" depart="14.00" departLane="-E3_0" departPos="5.10" departSpeed="16.39" departDelay="0.00" arrival="91.00" arrivalLane="E2_0" arrivalPos="508.36" arrivalSpeed="12.75" duration="77.00" routeLength="1004.51" waitingTime="0.00" waitingCount="0" stopTime="0.00" timeLoss="5.99" rerouteNo="0" devices="tripinfo_SE.cv.1 routing_SE.cv.1" vType="cv" speedFactor="0.81" vaporized=""/>
    <tripinfo id="SW.cv.1" depart="36.00" departLane="-E3_3" departPos="5.10" departSpeed="24.13" departDelay="0.00" arrival="91.00" arrivalLane="-E0_1" arrivalPos="500.03" arrivalSpeed="18.77" duration="55.00" routeLength="996.18" waitingTime="0.00" waitingCount="0" stopTime="0.00" timeLoss="7.60" rerouteNo="0" devices="tripinfo_SW.cv.1 routing_SW.cv.1" vType="cv" speedFactor="1.20" vaporized=""/>
    <tripinfo id="NE.0" depart="21.00" departLane="E1_3" departPos="5.10" departSpeed="20.04" departDelay="0.00" arrival="92.00" arrivalLane="E2_1" arrivalPos="508.36" arrivalSpeed="15.59" duration="71.00" routeLength="1002.03" waitingTime="2.00" waitingCount="1" stopTime="0.00" timeLoss="13.50" rerouteNo="0" devices="tripinfo_NE.0 routing_NE.0" vType="car" speedFactor="1.00" vaporized=""/>
    <tripinfo id="SE.0" depart="20.00" departLane="-E3_0" departPos="5.10" departSpeed="21.23" departDelay="0.00" arrival="93.00" arrivalLane="E2_0" arrivalPos="508.36" arrivalSpeed="15.51" duration="73.00" routeLength="1004.51" waitingTime="1.00" waitingCount="1" stopTime="0.00" timeLoss="18.01" rerouteNo="0" devices="tripinfo_SE.0 routing_SE.0" vType="car" speedFactor="1.06" vaporized=""/>
    <tripinfo id="SN.cv.1" depart="14.00" departLane="-E3_2" departPos="5.10" departSpeed="22.05" departDelay="0.00" arrival="94.00" arrivalLane="-E1_1" arrivalPos="498.92" arrivalSpeed="22.05" duration="80.00" routeLength="995.07" waitingTime="22.00" waitingCount="1" stopTime="0.00" timeLoss="34.81" rerouteNo="0" devices="tripinfo_SN.cv.1 routing_SN.cv.1" vType="cv" speedFactor="1.10" vaporized=""/>
    <tripinfo id="SE.1" depart="25.00" departLane="-E3_0" departPos="5.10" departSpeed="20.22" departDelay="0.00" arrival="95.00" arrivalLane="E2_0" arrivalPos="508.36" arrivalSpeed="15.47" duration="70.00" routeLength="1004.51" waitingTime="0.00" waitingCount="0" stopTime="0.00" timeLoss="13.07" rerouteNo="0" devices="tripinfo_SE.1 routing_SE.1" vType="car" speedFactor="1.00" vaporized=""/>
    <tripinfo id="NE.1" depart="24.00" departLane="E1_3" departPos="5.10" departSpeed="19.81" departDelay="0.00" arrival="96.00" arrivalLane="E2_1" arrivalPos="508.36" arrivalSpeed="15.39" duration="72.00" routeLength="1002.03" waitingTime="0.00" waitingCount="0" stopTime="0.00" timeLoss="13.43" rerouteNo="0" devices="tripinfo_NE.1 routing_NE.1" vType="car" speedFactor="0.98" vaporized=""/>
    <tripinfo id="SW.cv.0" depart="26.00" departLane="-E3_3" departPos="5.10" departSpeed="18.09" departDelay="0.00" arrival="97.00" arrivalLane="-E0_0" arrivalPos="500.03" arrivalSpeed="14.07" duration="71.00" routeLength="996.18" waitingTime="0.00" waitingCount="0" stopTime="0.00" timeLoss="7.61" rerouteNo="0" devices="tripinfo_SW.cv.0 routing_SW.cv.0" vType="cv" speedFactor="0.90" vaporized=""/>
    <tripinfo id="SN.cv.0" depart="9.00" departLane="-E3_1" departPos="5.10" departSpeed="18.10" departDelay="0.00" arrival="99.00" arrivalLane="-E1_0" arrivalPos="498.92" arrivalSpeed="18.10" duration="90.00" routeLength="995.07" waitingTime="22.00" waitingCount="1" stopTime="0.00" timeLoss="34.06" rerouteNo="0" devices="tripinfo_SN.cv.0 routing_SN.cv.0" vType="cv" speedFactor="0.90" vaporized=""/>
    <tripinfo id="NS.cv.1" depart="11.00" departLane="E1_2" departPos="5.10" departSpeed="18.22" departDelay="0.00" arrival="100.00" arrivalLane="E3_1" arrivalPos="501.31" arrivalSpeed="18.22" duration="89.00" routeLength="994.98" waitingTime="23.00" waitingCount="1" stopTime="0.00" timeLoss="34.40" rerouteNo="0" devices="tripinfo_NS.cv.1 routing_NS.cv.1" vType="cv" speedFactor="0.91" vaporized=""/>
    <tripinfo id="NS.cv.2" depart="14.00" departLane="E1_1" departPos="5.10" departSpeed="19.02" departDelay="0.00" arrival="100.00" arrivalLane="E3_0" arrivalPos="501.31" arrivalSpeed="19.02" duration="86.00" routeLength="994.98" waitingTime="20.00" waitingCount="1" stopTime="0.00" timeLoss="32.70" rerouteNo="0" devices="tripinfo_NS.cv.2 routing_NS.cv.2" vType="cv" speedFactor="0.95" vaporized=""/>
    <tripinfo id="SN.2" depart="25.00" departLane="-E3_1" departPos="5.10" departSpeed="19.01" departDelay="0.00" arrival="100.00" arrivalLane="-E1_1" arrivalPos="498.92" arrivalSpeed="19.01" duration="75.00" routeLength="995.07" waitingTime="9.00" waitingCount="1" stopTime="0.00" timeLoss="22.02" rerouteNo="0" devices="tripinfo_SN.2 routing_SN.2" vType="car" speedFactor="0.94" vaporized=""/>
    <tripinfo id="NS.cv.3" depart="16.00" departLane="E1_2" departPos="5.10" departSpeed="21.72" departDelay="0.00" arrival="102.00" arrivalLane="E3_1" arrivalPos="501.31" arrivalSpeed="20.25" duration="86.00" routeLength="994.98" waitingTime="23.00" waitingCount="1" stopTime="0.00" timeLoss="39.96" rerouteNo="0" devices="tripinfo_NS.cv.3 routing_NS.cv.3" vType="cv" speedFactor="1.08" vaporized=""/>
    <tripinfo id="NS.1" depart="27.00" departLane="E1_1" departPos="5.10" departSpeed="20.31" departDelay="0.00" arrival="102.00" arrivalLane="E3_0" arrivalPos="501.31" arrivalSpeed="19.05" duration="75.00" routeLength="994.98" waitingTime="11.00" waitingCount="1" stopTime="0.00" timeLoss="25.89" rerouteNo="0" devices="tripinfo_NS.1 routing_NS.1" vType="car" speedFactor="1.01" vaporized=""/>
    <tripinfo id="SN.cv.2" depart="32.00" departLane="-E3_2" departPos="5.10" departSpeed="21.18" departDelay="0.00" arrival="102.00" arrivalLane="-E1_0" arrivalPos="498.92" arrivalSpeed="20.33" duration="70.00" routeLength="995.07" waitingTime="6.00" waitingCount="1" stopTime="0.00" timeLoss="22.12" rerouteNo="0" devices="tripinfo_SN.cv.2 routing_SN.cv.2" vType="cv" speedFactor="1.05" vaporized=""/>
    <tripinfo id="SN.cv.4" depart="47.00" departLane="-E3_2" departPos="5.10" departSpeed="20.56" departDelay="0.00" arrival="103.00" arrivalLane="-E1_1" arrivalPos="498.92" arrivalSpeed="20.29" duration="56.00" routeLength="995.07" waitingTime="0.00" waitingCount="0" stopTime="0.00" timeLoss="6.64" rerouteNo="0" devices="tripinfo_SN.cv.4 routing_SN.cv.4" vType="cv" speedFactor="1.02" vaporized=""/>
    <tripinfo id="NS.cv.4" depart="28.00" departLane="E1_2" departPos="5.10" departSpeed="22.33" departDelay="0.00" arrival="104.00" arrivalLane="E3_1" arrivalPos="501.31" arrivalSpeed="20.74" duration="76.00" routeLength="994.98" waitingTime="12.00" waitingCount="1" stopTime="0.00" timeLoss="31.01" rerouteNo="0" devices="tripinfo_NS.cv.4 routing_NS.cv.4" vType="cv" speedFactor="1.11" vaporized=""/>
    <tripinfo id="NS.cv.6" depart="43.00" departLane="E1_1" departPos="5.10" departSpeed="20.86" departDelay="0.00" arrival="104.00" arrivalLane="E3_0" arrivalPos="501.31" arrivalSpeed="19.87" duration="61.00" routeLength="994.98" waitingTime="0.00" waitingCount="0" stopTime="0.00" timeLoss="13.17" rerouteNo="0" devices="tripinfo_NS.cv.6 routing_NS.cv.6" vType="cv" speedFactor="1.04" vaporized=""/>
    <tripinfo id="SN.3" depart="49.00" departLane="-E3_1" departPos="5.10" departSpeed="23.79" departDelay="0.00" arrival="104.00" arrivalLane="-E1_1" arrivalPos="498.92" arrivalSpeed="20.95" duration="55.00" routeLength="995.07" waitingTime="0.00" waitingCount="0" stopTime="0.00" timeLoss="12.98" rerouteNo="0" devices="tripinfo_SN.3 routing_SN.3" vType="car" speedFactor="1.18" vaporized=""/>
    <tripinfo id="SN.cv.3" depart="39.00" departLane="-E3_1" departPos="5.10" departSpeed="18.30" departDelay="0.00" arrival="105.00" arrivalLane="-E1_0" arrivalPos="498.92" arrivalSpeed="18.23" duration="66.00" routeLength="995.07" waitingTime="0.00" waitingCount="0" stopTime="0.00" timeLoss="11.33" rerouteNo="0" devices="tripinfo_SN.cv.3 routing_SN.cv.3" vType="cv" speedFactor="0.91" vaporized=""/>
    <tripinfo id="SE.cv.2" depart="28.00" departLane="-E3_0" departPos="5.10" departSpeed="15.89" departDelay="0.00" arrival="106.00" arrivalLane="E2_0" arrivalPos="508.36" arrivalSpeed="12.36" duration="78.00" routeLength="1004.51" waitingTime="0.00" waitingCount="0" stopTime="0.00" timeLoss="5.36" rerouteNo="0" devices="tripinfo_SE.cv.2 routing_SE.cv.2" vType="cv" speedFactor="0.79" vaporized=""/>
    <tripinfo id="NS.cv.5" depart="32.00" departLane="E1_1" departPos="5.10" departSpeed="20.02" departDelay="0.00" arrival="106.00" arrivalLane="E3_1" arrivalPos="501.31" arrivalSpeed="19.54" duration="74.00" routeLength="994.98" waitingTime="8.00" waitingCount="1" stopTime="0.00" timeLoss="24.28" rerouteNo="0" devices="tripinfo_NS.cv.5 routing_NS.cv.5" vType="cv" speedFactor="1.00" vaporized=""/>
    <tripinfo id="SN.cv.5" depart="52.00" departLane="-E3_1" departPos="5.10" departSpeed="24.68" departDelay="0.00" arrival="106.00" arrivalLane="-E1_1" arrivalPos="498.92" arrivalSpeed="22.10" duration="54.00" routeLength="995.07" waitingTime="0.00" waitingCount="0" stopTime="0.00" timeLoss="13.15" rerouteNo="0" devices="tripinfo_SN.cv.5 routing_SN.cv.5" vType="cv" speedFactor="1.23" vaporized=""/>
    <tripinfo id="NS.cv.7" depart="45.00" departLane="E1_2" departPos="5.10" departSpeed="20.26" departDelay="0.00" arrival="107.00" arrivalLane="E3_0" arrivalPos="501.31" arrivalSpeed="19.62" duration="62.00" routeLength="994.98" waitingTime="0.00" waitingCount="0" stopTime="0.00" timeLoss="12.04" rerouteNo="0" devices="tripinfo_NS.cv.7 routing_NS.cv.7" vType="cv" speedFactor="1.01" vaporized=""/>
    <tripinfo id="NS.2" depart="43.00" departLane="E1_2" departPos="5.10" departSpeed="20.91" departDelay="0.00" arrival="108.00" arrivalLane="E3_1" arrivalPos="501.31" arrivalSpeed="20.01" duration="65.00" routeLength="994.98" waitingTime="0.00" waitingCount="0" stopTime="0.00" timeLoss="17.40" rerouteNo="0" devices="tripinfo_NS.2 routing_NS.2" vType="car" speedFactor="1.04" vaporized=""/>
    <tripinfo id="SN.cv.6" depart="54.00" departLane="-E3_1" departPos="5.10" departSpeed="21.17" departDelay="0.00" arrival="108.00" arrivalLane="-E1_0" arrivalPos="498.92" arrivalSpeed="20.80" duration="54.00" routeLength="995.07" waitingTime="0.00" waitingCount="0" stopTime="0.00" timeLoss="6.60" rerouteNo="0" devices="tripinfo_SN.cv.6 routing_SN.cv.6" vType="cv" speedFactor="1.05" vaporized=""/>
    <tripinfo id="WE.cv.2" depart="23.00" departLane="E0_0" departPos="5.10" departSpeed="15.84" departDelay="0.00" arrival="108.00" arrivalLane="E2_0" arrivalPos="508.36" arrivalSpeed="2.60" duration="85.00" routeLength="1002.59" waitingTime="45.00" waitingCount="1" stopTime="0.00" timeLoss="53.70" rerouteNo="0" devices="tripinfo_WE.cv.2 routing_WE.cv.2" vType="cv" speedFactor="1.01" vaporized="teleport"/>
    <tripinfo id="SN.cv.7" depart="57.00" departLane="-E3_1" departPos="5.10" departSpeed="20.25" departDelay="0.00" arrival="111.00" arrivalLane="-E1_0" arrivalPos="498.92" arrivalSpeed="20.04" duration="54.00" routeLength="995.07" waitingTime="0.00" waitingCount="0" stopTime="0.00" timeLoss="4.07" rerouteNo="0" devices="tripinfo_SN.cv.7 routing_SN.cv.7" vType="cv" speedFactor="1.01" vaporized=""/>
    <tripinfo id="NS.3" depart="54.00" departLane="E1_1" departPos="5.10" departSpeed="18.30" departDelay="0.00" arrival="112.00" arrivalLane="E3_0" arrivalPos="501.31" arrivalSpeed="18.29" duration="58.00" routeLength="994.98" waitingTime="0.00" waitingCount="0" stopTime="0.00" timeLoss="2.72" rerouteNo="0" devices="tripinfo_NS.3 routing_NS.3" vType="car" speedFactor="0.91" vaporized=""/>
    <tripinfo id="NS.cv.8" depart="59.00" departLane="E1_2" departPos="5.10" departSpeed="20.77" departDelay="0.00" arrival="112.00" arrivalLane="E3_1" arrivalPos="501.31" arrivalSpeed="20.66" duration="53.00" routeLength="994.98" waitingTime="0.00" waitingCount="0" stopTime="0.00" timeLoss="4.39" rerouteNo="0" devices="tripinfo_NS.cv.8 routing_NS.cv.8" vType="cv" speedFactor="1.03" vaporized=""/>
    <tripinfo id="SE.cv.4" depart="56.00" departLane="-E3_0" departPos="5.10" departSpeed="23.27" departDelay="0.00" arrival="113.00" arrivalLane="E2_0" arrivalPos="508.36" arrivalSpeed="18.10" duration="57.00" routeLength="1004.51" waitingTime="0.00" waitingCount="0" stopTime="0.00" timeLoss="7.45" rerouteNo="0" devices="tripinfo_SE.cv.4 routing_SE.cv.4" vType="cv" speedFactor="1.16" vaporized=""/>
    <tripinfo id="SN.cv.8" depart="60.00" departLane="-E3_1" departPos="5.10" departSpeed="19.88" departDelay="0.00" arrival="114.00" arrivalLane="-E1_0" arrivalPos="498.92" arrivalSpeed="19.75" duration="54.00" routeLength="995.07" waitingTime="0.00" waitingCount="0" stopTime="0.00" timeLoss="3.41" rerouteNo="0" devices="tripinfo_SN.cv.8 routing_SN.cv.8" vType="cv" speedFactor="0.99" vaporized=""/>
    <tripinfo id="SN.cv.9" depart="62.00" departLane="-E3_1" departPos="5.10" departSpeed="21.44" departDelay="0.00" arrival="114.00" arrivalLane="-E1_1" arrivalPos="498.92" arrivalSpeed="21.43" duration="52.00" routeLength="995.07" waitingTime="0.00" waitingCount="0" stopTime="0.00" timeLoss="5.51" rerouteNo="0" devices="tripinfo_SN.cv.9 routing_SN.cv.9" vType="cv" speedFactor="1.07" vaporized=""/>
    <tripinfo id="SE.cv.3" depart="48.00" departLane="-E3_0" departPos="5.10" departSpeed="19.09" departDelay="0.00" arrival="115.00" arrivalLane="E2_0" arrivalPos="508.36" arrivalSpeed="14.64" duration="67.00" routeLength="1004.51" waitingTime="0.00" waitingCount="0" stopTime="0.00" timeLoss="6.18" rerouteNo="0" devices="tripinfo_SE.cv.3 routing_SE.cv.3" vType="cv" speedFactor="0.95" vaporized=""/>
    <tripinfo id="NS.4" depart="61.00" departLane="E1_1" departPos="5.10" departSpeed="19.85" departDelay="0.00" arrival="115.00" arrivalLane="E3_0" arrivalPos="501.31" arrivalSpeed="19.71" duration="54.00" routeLength="994.98" waitingTime="0.00" waitingCount="0" stopTime="0.00" timeLoss="3.38" rerouteNo="0" devices="tripinfo_NS.4 routing_NS.4" vType="car" speedFactor="0.99" vaporized=""/>
    <tripinfo id="NS.cv.9" depart="62.00" departLane="E1_2" departPos="5.10" departSpeed="20.07" departDelay="0.00" arrival="117.00" arrivalLane="E3_0" arrivalPos="501.31" arrivalSpeed="19.60" duration="55.00" routeLength="994.98" waitingTime="0.00" waitingCount="0" stopTime="0.00" timeLoss="5.28" rerouteNo="0" devices="tripinfo_NS.cv.9 routing_NS.cv.9" vType="cv" speedFactor="1.00" vaporized=""/>
    <tripinfo id="NW.1" depart="86.00" departLane="E1_0" departPos="5.10" departSpeed="20.24" departDelay="0.00" arrival="116.00" arrivalLane="-E0_0" arrivalPos="500.03" arrivalSpeed="4.67" duration="30.00" routeLength="993.70" waitingTime="0.00" waitingCount="0" stopTime="0.00" timeLoss="5.43" rerouteNo="0" devices="tripinfo_NW.1 routing_NW.1" vType="car" speedFactor="1.01" vaporized="teleport"/>
    <tripinfo id="WN.cv.0" depart="25.00" departLane="E0_3" departPos="5.10" departSpeed="16.01" departDelay="0.00" arrival="125.00" arrivalLane="-E1_0" arrivalPos="498.92" arrivalSpeed="20.58" duration="100.00" routeLength="993.15" waitingTime="32.00" waitingCount="1" stopTime="0.00" timeLoss="44.17" rerouteNo="0" devices="tripinfo_WN.cv.0 routing_WN.cv.0" vType="cv" speedFactor="1.02" vaporized=""/>
    <tripinfo id="ES.cv.1" depart="7.00" departLane="-E2_3" departPos="5.10" departSpeed="14.11" departDelay="0.00" arrival="128.00" arrivalLane="E3_0" arrivalPos="501.31" arrivalSpeed="18.14" duration="121.00" routeLength="1002.88" waitingTime="46.00" waitingCount="1" stopTime="0.00" timeLoss="56.98" rerouteNo="0" devices="tripinfo_ES.cv.1 routing_ES.cv.1" vType="cv" speedFactor="0.90" vaporized=""/>
    <tripinfo id="WN.0" depart="16.00" departLane="E0_2" departPos="5.10" departSpeed="14.33" departDelay="0.00" arrival="128.00" arrivalLane="-E1_1" arrivalPos="498.92" arrivalSpeed="18.41" duration="112.00" routeLength="993.15" waitingTime="38.00" waitingCount="1" stopTime="0.00" timeLoss="49.55" rerouteNo="0" devices="tripinfo_WN.0 routing_WN.0" vType="car" speedFactor="0.92" vaporized=""/>
    <tripinfo id="WN.1" depart="41.00" departLane="E0_3" departPos="5.10" departSpeed="17.69" departDelay="0.00" arrival="129.00" arrivalLane="-E1_0" arrivalPos="498.92" arrivalSpeed="19.69" duration="88.00" routeLength="993.15" waitingTime="20.00" waitingCount="1" stopTime="0.00" timeLoss="37.98" rerouteNo="0" devices="tripinfo_WN.1 routing_WN.1" vType="car" speedFactor="1.13" vaporized=""/>
    <tripinfo id="ES.cv.0" depart="1.00" departLane="-E2_2" departPos="5.10" departSpeed="12.79" departDelay="0.00" arrival="130.00" arrivalLane="E3_1" arrivalPos="501.31" arrivalSpeed="16.44" duration="129.00" routeLength="1002.88" waitingTime="49.00" waitingCount="1" stopTime="0.00" timeLoss="58.91" rerouteNo="0" devices="tripinfo_ES.cv.0 routing_ES.cv.0" vType="cv" speedFactor="0.82" vaporized=""/>
    <tripinfo id="WN.2" depart="42.00" departLane="E0_2" departPos="5.10" departSpeed="13.97" departDelay="0.00" arrival="130.00" arrivalLane="-E1_1" arrivalPos="498.92" arrivalSpeed="17.75" duration="88.00" routeLength="993.15" waitingTime="13.00" waitingCount="1" stopTime="0.00" timeLoss="24.87" rerouteNo="0" devices="tripinfo_WN.2 routing_WN.2" vType="car" speedFactor="0.89" vaporized=""/>
    <tripinfo id="ES.cv.3" depart="66.00" departLane="-E2_2" departPos="5.10" departSpeed="16.27" departDelay="0.00" arrival="131.00" arrivalLane="E3_0" arrivalPos="501.31" arrivalSpeed="17.90" duration="65.00" routeLength="1002.88" waitingTime="0.00" waitingCount="0" stopTime="0.00" timeLoss="9.87" rerouteNo="0" devices="tripinfo_ES.cv.3 routing_ES.cv.3" vType="cv" speedFactor="1.04" vaporized=""/>
    <tripinfo id="NW.0" depart="67.00" departLane="E1_0" departPos="5.10" departSpeed="20.34" departDelay="0.00" arrival="131.00" arrivalLane="-E0_0" arrivalPos="500.03" arrivalSpeed="15.82" duration="64.00" routeLength="993.70" waitingTime="0.00" waitingCount="0" stopTime="0.00" timeLoss="7.18" rerouteNo="0" devices="tripinfo_NW.0 routing_NW.0" vType="car" speedFactor="1.01" vaporized=""/>
    <tripinfo id="ES.cv.2" depart="51.00" departLane="-E2_3" departPos="5.10" departSpeed="15.40" departDelay="0.00" arrival="132.00" arrivalLane="E3_0" arrivalPos="501.31" arrivalSpeed="18.49" duration="81.00" routeLength="1002.88" waitingTime="6.00" waitingCount="1" stopTime="0.00" timeLoss="22.58" rerouteNo="0" devices="tripinfo_ES.cv.2 routing_ES.cv.2" vType="cv" speedFactor="0.98" vaporized=""/>
    <tripinfo id="SE.cv.5" depart="60.00" departLane="-E3_0" departPos="5.10" departSpeed="18.02" departDelay="0.00" arrival="135.00" arrivalLane="E2_0" arrivalPos="508.36" arrivalSpeed="14.02" duration="75.00" routeLength="1004.51" waitingTime="1.00" waitingCount="1" stopTime="0.00" timeLoss="11.03" rerouteNo="0" devices="tripinfo_SE.cv.5 routing_SE.cv.5" vType="cv" speedFactor="0.90" vaporized=""/>
    <tripinfo id="SE.cv.6" depart="61.00" departLane="-E3_0" departPos="5.10" departSpeed="15.40" departDelay="0.00" arrival="135.00" arrivalLane="E2_1" arrivalPos="508.36" arrivalSpeed="15.18" duration="74.00" routeLength="1004.51" waitingTime="0.00" waitingCount="0" stopTime="0.00" timeLoss="14.68" rerouteNo="0" devices="tripinfo_SE.cv.6 routing_SE.cv.6" vType="cv" speedFactor="0.97" vaporized=""/>
    <tripinfo id="EN.cv.1" depart="30.00" departLane="-E2_0" departPos="5.10" departSpeed="16.39" departDelay="0.00" arrival="138.00" arrivalLane="-E1_1" arrivalPos="498.92" arrivalSpeed="21.06" duration="108.00" routeLength="1000.49" waitingTime="40.00" waitingCount="1" stopTime="0.00" timeLoss="52.82" rerouteNo="0" devices="tripinfo_EN.cv.1 routing_EN.cv.1" vType="cv" speedFactor="1.05" vaporized=""/>
    <tripinfo id="WS.cv.0" depart="28.00" departLane="E0_0" departPos="5.10" departSpeed="14.46" departDelay="0.00" arrival="140.00" arrivalLane="E3_1" arrivalPos="501.31" arrivalSpeed="18.59" duration="112.00" routeLength="995.54" waitingTime="39.00" waitingCount="1" stopTime="0.00" timeLoss="50.69" rerouteNo="0" devices="tripinfo_WS.cv.0 routing_WS.cv.0" vType="cv" speedFactor="0.92" vaporized=""/>
    <tripinfo id="EW.cv.2" depart="31.00" departLane="-E2_1" departPos="5.10" departSpeed="16.96" departDelay="0.00" arrival="140.00" arrivalLane="-E0_0" arrivalPos="500.03" arrivalSpeed="16.96" duration="109.00" routeLength="1001.60" waitingTime="39.00" waitingCount="1" stopTime="0.00" timeLoss="49.64" rerouteNo="0" devices="tripinfo_EW.cv.2 routing_EW.cv.2" vType="cv" speedFactor="1.08" vaporized=""/>
    <tripinfo id="EW.cv.1" depart="21.00" departLane="-E2_1" departPos="5.10" departSpeed="16.11" departDelay="0.00" arrival="142.00" arrivalLane="-E0_0" arrivalPos="500.03" arrivalSpeed="15.72" duration="121.00" routeLength="1001.60" waitingTime="48.00" waitingCount="1" stopTime="0.00" timeLoss="58.11" rerouteNo="0" devices="tripinfo_EW.cv.1 routing_EW.cv.1" vType="cv" speedFactor="1.03" vaporized=""/>
    <tripinfo id="WS.1" depart="34.00" departLane="E0_0" departPos="5.10" departSpeed="18.96" departDelay="0.00" arrival="142.00" arrivalLane="E3_1" arrivalPos="501.31" arrivalSpeed="21.51" duration="108.00" routeLength="995.54" waitingTime="39.00" waitingCount="1" stopTime="0.00" timeLoss="60.83" rerouteNo="0" devices="tripinfo_WS.1 routing_WS.1" vType="car" speedFactor="1.21" vaporized=""/>
    <tripinfo id="WE.1" depart="20.00" departLane="E0_1" departPos="5.10" departSpeed="15.87" departDelay="0.00" arrival="143.00" arrivalLane="E2_0" arrivalPos="508.36" arrivalSpeed="15.87" duration="123.00" routeLength="1002.59" waitingTime="49.00" waitingCount="1" stopTime="0.00" timeLoss="59.01" rerouteNo="0" devices="tripinfo_WE.1 routing_WE.1" vType="car" speedFactor="1.01" vaporized=""/>
    <tripinfo id="WE.cv.3" depart="25.00" departLane="E0_1" departPos="5.10" departSpeed="15.61" departDelay="0.00" arrival="146.00" arrivalLane="E2_1" arrivalPos="508.36" arrivalSpeed="15.61" duration="121.00" routeLength="1002.59" waitingTime="44.00" waitingCount="1" stopTime="0.00" timeLoss="56.32" rerouteNo="0" devices="tripinfo_WE.cv.3 routing_WE.cv.3" vType="cv" speedFactor="1.00" vaporized=""/>
    <tripinfo id="EW.0" depart="49.00" departLane="-E2_0" departPos="5.10" departSpeed="15.58" departDelay="0.00" arrival="146.00" arrivalLane="-E0_0" arrivalPos="500.03" arrivalSpeed="15.55" duration="97.00" routeLength="1001.60" waitingTime="19.00" waitingCount="1" stopTime="0.00" timeLoss="31.74" rerouteNo="0" devices="tripinfo_EW.0 routing_EW.0" vType="car" speedFactor="1.00" vaporized=""/>
    <tripinfo id="SE.2" depart="63.00" departLane="-E3_0" departPos="5.10" departSpeed="16.37" departDelay="0.00" arrival="146.00" arrivalLane="E2_0" arrivalPos="508.36" arrivalSpeed="14.55" duration="83.00" routeLength="1004.51" waitingTime="0.00" waitingCount="0" stopTime="0.00" timeLoss="21.08" rerouteNo="0" devices="tripinfo_SE.2 routing_SE.2" vType="car" speedFactor="0.93" vaporized=""/>
    <tripinfo id="WE.3" depart="41.00" departLane="E0_0" departPos="5.10" departSpeed="17.83" departDelay="0.00" arrival="148.00" arrivalLane="E2_1" arrivalPos="508.36" arrivalSpeed="17.07" duration="107.00" routeLength="1002.59" waitingTime="32.00" waitingCount="1" stopTime="0.00" timeLoss="50.32" rerouteNo="0" devices="tripinfo_WE.3 routing_WE.3" vType="car" speedFactor="1.14" vaporized=""/>