<?xml version="1.0" encoding="UTF-8"?>

<!-- generated on 2023-01-30 20:10:11 by Eclipse SUMO sumo Version 1.13.0
<configuration xmlns:xsi="http://www.w3.org/2001/XMLSchema-instance" xsi:noNamespaceSchemaLocation="http://sumo.dlr.de/xsd/sumoConfiguration.xsd">

    <input>
        <net-file value="data/Eastway-Central.net.xml"/>
        <route-files value="data/Eastway-Central-offpeak.rou.xml"/>
        <additional-files value="data/Eastway-Central.add.xml"/>
    </input>

    <output>
        <tripinfo-output value="result\2023-01-30-20-07-31\16_tripinfo.xml"/>
    </output>

    <report>
        <no-warnings value="true"/>
        <no-step-log value="true"/>
    </report>

    <traci_server>
        <remote-port value="51464"/>
    </traci_server>

    <random_number>
        <seed value="15"/>
    </random_number>

</configuration>
-->

<tripinfos xmlns:xsi="http://www.w3.org/2001/XMLSchema-instance" xsi:noNamespaceSchemaLocation="http://sumo.dlr.de/xsd/tripinfo_file.xsd">
    <tripinfo id="BNS.0" depart="0.00" departLane="E1_1" departPos="12.10" departSpeed="20.12" departDelay="0.00" arrival="50.00" arrivalLane="E3_0" arrivalPos="501.31" arrivalSpeed="20.12" duration="50.00" routeLength="987.98" waitingTime="0.00" waitingCount="0" stopTime="0.00" timeLoss="0.19" rerouteNo="0" devices="tripinfo_BNS.0 routing_BNS.0" vType="bus" speedFactor="1.00" vaporized=""/>
    <tripinfo id="NS.2" depart="11.00" departLane="E1_2" departPos="5.10" departSpeed="23.63" departDelay="0.00" arrival="54.00" arrivalLane="E3_1" arrivalPos="501.31" arrivalSpeed="23.63" duration="43.00" routeLength="994.98" waitingTime="0.00" waitingCount="0" stopTime="0.00" timeLoss="0.11" rerouteNo="0" devices="tripinfo_NS.2 routing_NS.2" vType="car" speedFactor="1.17" vaporized=""/>
    <tripinfo id="NS.0" depart="3.00" departLane="E1_2" departPos="5.10" departSpeed="19.01" departDelay="0.00" arrival="56.00" arrivalLane="E3_0" arrivalPos="501.31" arrivalSpeed="19.01" duration="53.00" routeLength="994.98" waitingTime="0.00" waitingCount="0" stopTime="0.00" timeLoss="0.41" rerouteNo="0" devices="tripinfo_NS.0 routing_NS.0" vType="car" speedFactor="0.94" vaporized=""/>
    <tripinfo id="SN.0" depart="13.00" departLane="-E3_1" departPos="5.10" departSpeed="22.76" departDelay="0.00" arrival="57.00" arrivalLane="-E1_0" arrivalPos="498.92" arrivalSpeed="22.76" duration="44.00" routeLength="995.07" waitingTime="0.00" waitingCount="0" stopTime="0.00" timeLoss="0.00" rerouteNo="0" devices="tripinfo_SN.0 routing_SN.0" vType="car" speedFactor="1.13" vaporized=""/>
    <tripinfo id="NS.1" depart="8.00" departLane="E1_1" departPos="5.10" departSpeed="19.38" departDelay="0.00" arrival="61.00" arrivalLane="E3_0" arrivalPos="501.31" arrivalSpeed="19.36" duration="53.00" routeLength="994.98" waitingTime="0.00" waitingCount="0" stopTime="0.00" timeLoss="0.84" rerouteNo="0" devices="tripinfo_NS.1 routing_NS.1" vType="car" speedFactor="0.96" vaporized=""/>
    <tripinfo id="NW.0" depart="3.00" departLane="E1_0" departPos="5.10" departSpeed="20.18" departDelay="0.00" arrival="67.00" arrivalLane="-E0_0" arrivalPos="500.03" arrivalSpeed="15.69" duration="64.00" routeLength="993.70" waitingTime="0.00" waitingCount="0" stopTime="0.00" timeLoss="6.83" rerouteNo="0" devices="tripinfo_NW.0 routing_NW.0" vType="car" speedFactor="1.00" vaporized=""/>
    <tripinfo id="WS.0" depart="1.00" departLane="E0_0" departPos="5.10" departSpeed="14.90" departDelay="0.00" arrival="71.00" arrivalLane="E3_0" arrivalPos="501.31" arrivalSpeed="19.15" duration="70.00" routeLength="995.54" waitingTime="0.00" waitingCount="0" stopTime="0.00" timeLoss="10.51" rerouteNo="0" devices="tripinfo_WS.0 routing_WS.0" vType="car" speedFactor="0.95" vaporized=""/>
    <tripinfo id="WN.0" depart="0.00" departLane="E0_2" departPos="5.10" departSpeed="13.74" departDelay="0.00" arrival="73.00" arrivalLane="-E1_0" arrivalPos="498.92" arrivalSpeed="17.66" duration="73.00" routeLength="993.15" waitingTime="0.00" waitingCount="0" stopTime="0.00" timeLoss="8.22" rerouteNo="0" devices="tripinfo_WN.0 routing_WN.0" vType="car" speedFactor="0.88" vaporized=""/>
    <tripinfo id="WE.0" depart="2.00" departLane="E0_1" departPos="5.10" departSpeed="15.37" departDelay="0.00" arrival="77.00" arrivalLane="E2_0" arrivalPos="508.36" arrivalSpeed="15.37" duration="75.00" routeLength="1002.59" waitingTime="0.00" waitingCount="0" stopTime="0.00" timeLoss="9.66" rerouteNo="0" devices="tripinfo_WE.0 routing_WE.0" vType="car" speedFactor="0.98" vaporized=""/>
    <tripinfo id="WE.1" depart="7.00" departLane="E0_0" departPos="5.10" departSpeed="15.19" departDelay="0.00" arrival="79.00" arrivalLane="E2_0" arrivalPos="508.36" arrivalSpeed="15.19" duration="72.00" routeLength="1002.59" waitingTime="0.00" waitingCount="0" stopTime="0.00" timeLoss="5.89" rerouteNo="0" devices="tripinfo_WE.1 routing_WE.1" vType="car" speedFactor="0.97" vaporized=""/>
    <tripinfo id="NW.1" depart="15.00" departLane="E1_0" departPos="5.10" departSpeed="19.19" departDelay="0.00" arrival="81.00" arrivalLane="-E0_0" arrivalPos="500.03" arrivalSpeed="14.93" duration="66.00" routeLength="993.70" waitingTime="0.00" waitingCount="0" stopTime="0.00" timeLoss="6.43" rerouteNo="0" devices="tripinfo_NW.1 routing_NW.1" vType="car" speedFactor="0.95" vaporized=""/>
    <tripinfo id="EW.0" depart="0.00" departLane="-E2_0" departPos="5.10" departSpeed="16.24" departDelay="0.00" arrival="86.00" arrivalLane="-E0_0" arrivalPos="500.03" arrivalSpeed="16.23" duration="86.00" routeLength="1001.60" waitingTime="12.00" waitingCount="1" stopTime="0.00" timeLoss="23.50" rerouteNo="0" devices="tripinfo_EW.0 routing_EW.0" vType="car" speedFactor="1.04" vaporized=""/>
    <tripinfo id="WE.2" depart="9.00" departLane="E0_1" departPos="5.10" departSpeed="12.94" departDelay="0.00" arrival="88.00" arrivalLane="E2_0" arrivalPos="508.36" arrivalSpeed="12.94" duration="79.00" routeLength="1002.59" waitingTime="0.00" waitingCount="0" stopTime="0.00" timeLoss="1.12" rerouteNo="0" devices="tripinfo_WE.2 routing_WE.2" vType="car" speedFactor="0.83" vaporized=""/>
    <tripinfo id="EW.4" depart="26.00" departLane="-E2_1" departPos="5.10" departSpeed="16.47" departDelay="0.00" arrival="89.00" arrivalLane="-E0_1" arrivalPos="500.03" arrivalSpeed="16.47" duration="63.00" routeLength="1001.60" waitingTime="0.00" waitingCount="0" stopTime="0.00" timeLoss="1.36" rerouteNo="0" devices="tripinfo_EW.4 routing_EW.4" vType="car" speedFactor="1.05" vaporized=""/>
    <tripinfo id="EW.1" depart="7.00" departLane="-E2_1" departPos="5.10" departSpeed="14.14" departDelay="0.00" arrival="90.00" arrivalLane="-E0_0" arrivalPos="500.03" arrivalSpeed="14.13" duration="83.00" routeLength="1001.60" waitingTime="1.00" waitingCount="1" stopTime="0.00" timeLoss="11.98" rerouteNo="0" devices="tripinfo_EW.1 routing_EW.1" vType="car" speedFactor="0.90" vaporized=""/>
    <tripinfo id="WS.1" depart="21.00" departLane="E0_0" departPos="5.10" departSpeed="14.10" departDelay="0.00" arrival="90.00" arrivalLane="E3_0" arrivalPos="501.31" arrivalSpeed="18.13" duration="69.00" routeLength="995.54" waitingTime="0.00" waitingCount="0" stopTime="0.00" timeLoss="5.70" rerouteNo="0" devices="tripinfo_WS.1 routing_WS.1" vType="car" speedFactor="0.90" vaporized=""/>
    <tripinfo id="NW.2" depart="30.00" departLane="E1_0" departPos="5.10" departSpeed="23.68" departDelay="0.00" arrival="91.00" arrivalLane="-E0_1" arrivalPos="500.03" arrivalSpeed="17.73" duration="61.00" routeLength="993.70" waitingTime="0.00" waitingCount="0" stopTime="0.00" timeLoss="12.29" rerouteNo="0" devices="tripinfo_NW.2 routing_NW.2" vType="car" speedFactor="1.18" vaporized=""/>
    <tripinfo id="EW.2" depart="18.00" departLane="-E2_1" departPos="5.10" departSpeed="15.91" departDelay="0.00" arrival="92.00" arrivalLane="-E0_0" arrivalPos="500.03" arrivalSpeed="15.36" duration="74.00" routeLength="1001.60" waitingTime="0.00" waitingCount="0" stopTime="0.00" timeLoss="10.94" rerouteNo="0" devices="tripinfo_EW.2 routing_EW.2" vType="car" speedFactor="1.02" vaporized=""/>
    <tripinfo id="SN.2" depart="22.00" departLane="-E3_1" departPos="5.10" departSpeed="19.16" departDelay="0.00" arrival="99.00" arrivalLane="-E1_0" arrivalPos="498.92" arrivalSpeed="19.16" duration="77.00" routeLength="995.07" waitingTime="11.00" waitingCount="1" stopTime="0.00" timeLoss="24.80" rerouteNo="0" devices="tripinfo_SN.2 routing_SN.2" vType="car" speedFactor="0.95" vaporized=""/>
    <tripinfo id="EW.3" depart="24.00" departLane="-E2_0" departPos="5.10" departSpeed="13.56" departDelay="0.00" arrival="99.00" arrivalLane="-E0_0" arrivalPos="500.03" arrivalSpeed="13.56" duration="75.00" routeLength="1001.60" waitingTime="0.00" waitingCount="0" stopTime="0.00" timeLoss="1.05" rerouteNo="0" devices="tripinfo_EW.3 routing_EW.3" vType="car" speedFactor="0.87" vaporized=""/>
    <tripinfo id="SN.1" depart="15.00" departLane="-E3_2" departPos="5.10" departSpeed="18.43" departDelay="0.00" arrival="100.00" arrivalLane="-E1_0" arrivalPos="498.92" arrivalSpeed="18.43" duration="85.00" routeLength="995.07" waitingTime="19.00" waitingCount="1" stopTime="0.00" timeLoss="30.61" rerouteNo="0" devices="tripinfo_SN.1 routing_SN.1" vType="car" speedFactor="0.92" vaporized=""/>
    <tripinfo id="SN.3" depart="38.00" departLane="-E3_2" departPos="5.10" departSpeed="21.14" departDelay="0.00" arrival="102.00" arrivalLane="-E1_0" arrivalPos="498.92" arrivalSpeed="20.48" duration="64.00" routeLength="995.07" waitingTime="0.00" waitingCount="0" stopTime="0.00" timeLoss="16.40" rerouteNo="0" devices="tripinfo_SN.3 routing_SN.3" vType="car" speedFactor="1.05" vaporized=""/>
    <tripinfo id="ES.0" depart="20.00" departLane="-E2_2" departPos="5.10" departSpeed="15.77" departDelay="0.00" arrival="102.00" arrivalLane="E3_0" arrivalPos="501.31" arrivalSpeed="2.60" duration="82.00" routeLength="1002.88" waitingTime="42.00" waitingCount="1" stopTime="0.00" timeLoss="50.13" rerouteNo="0" devices="tripinfo_ES.0 routing_ES.0" vType="car" speedFactor="1.01" vaporized="teleport"/>
    <tripinfo id="WN.1" depart="23.00" departLane="E0_3" departPos="5.10" departSpeed="16.11" departDelay="0.00" arrival="102.00" arrivalLane="-E1_0" arrivalPos="498.92" arrivalSpeed="2.60" duration="79.00" routeLength="993.15" waitingTime="40.00" waitingCount="1" stopTime="0.00" timeLoss="48.25" rerouteNo="0" devices="tripinfo_WN.1 routing_WN.1" vType="car" speedFactor="1.03" vaporized="teleport"/>
    <tripinfo id="SN.4" depart="47.00" departLane="-E3_1" departPos="5.10" departSpeed="18.73" departDelay="0.00" arrival="105.00" arrivalLane="-E1_0" arrivalPos="498.92" arrivalSpeed="18.66" duration="58.00" routeLength="995.07" waitingTime="0.00" waitingCount="0" stopTime="0.00" timeLoss="4.08" rerouteNo="0" devices="tripinfo_SN.4 routing_SN.4" vType="car" speedFactor="0.93" vaporized=""/>
    <tripinfo id="NW.3" depart="34.00" departLane="E1_0" departPos="5.10" departSpeed="18.24" departDelay="0.00" arrival="107.00" arrivalLane="-E0_0" arrivalPos="500.03" arrivalSpeed="14.19" duration="73.00" routeLength="993.70" waitingTime="0.00" waitingCount="0" stopTime="0.00" timeLoss="10.66" rerouteNo="0" devices="tripinfo_NW.3 routing_NW.3" vType="car" speedFactor="0.91" vaporized=""/>
    <tripinfo id="SE.0" depart="37.00" departLane="-E3_0" departPos="5.10" departSpeed="18.92" departDelay="0.00" arrival="107.00" arrivalLane="E2_0" arrivalPos="508.36" arrivalSpeed="14.72" duration="70.00" routeLength="1004.51" waitingTime="0.00" waitingCount="0" stopTime="0.00" timeLoss="8.29" rerouteNo="0" devices="tripinfo_SE.0 routing_SE.0" vType="car" speedFactor="0.94" vaporized=""/>
    <tripinfo id="SE.1" depart="50.00" departLane="-E3_0" departPos="5.10" departSpeed="24.03" departDelay="0.00" arrival="107.00" arrivalLane="E2_1" arrivalPos="508.36" arrivalSpeed="18.69" duration="57.00" routeLength="1004.51" waitingTime="0.00" waitingCount="0" stopTime="0.00" timeLoss="9.10" rerouteNo="0" devices="tripinfo_SE.1 routing_SE.1" vType="car" speedFactor="1.19" vaporized=""/>
    <tripinfo id="SW.0" depart="16.00" departLane="-E3_3" departPos="5.10" departSpeed="17.75" departDelay="0.00" arrival="108.00" arrivalLane="-E0_1" arrivalPos="500.03" arrivalSpeed="13.81" duration="92.00" routeLength="996.18" waitingTime="17.00" waitingCount="1" stopTime="0.00" timeLoss="27.60" rerouteNo="0" devices="tripinfo_SW.0 routing_SW.0" vType="car" speedFactor="0.88" vaporized=""/>
    <tripinfo id="NS.4" depart="19.00" departLane="E1_2" departPos="5.10" departSpeed="20.06" departDelay="0.00" arrival="109.00" arrivalLane="E3_0" arrivalPos="501.31" arrivalSpeed="20.06" duration="90.00" routeLength="994.98" waitingTime="28.00" waitingCount="1" stopTime="0.00" timeLoss="40.27" rerouteNo="0" devices="tripinfo_NS.4 routing_NS.4" vType="car" speedFactor="1.00" vaporized=""/>
    <tripinfo id="NW.4" depart="37.00" departLane="E1_0" departPos="5.10" departSpeed="19.50" departDelay="0.00" arrival="110.00" arrivalLane="-E0_0" arrivalPos="500.03" arrivalSpeed="15.04" duration="73.00" routeLength="993.70" waitingTime="0.00" waitingCount="0" stopTime="0.00" timeLoss="14.21" rerouteNo="0" devices="tripinfo_NW.4 routing_NW.4" vType="car" speedFactor="0.97" vaporized=""/>
    <tripinfo id="SN.5" depart="59.00" departLane="-E3_2" departPos="5.10" departSpeed="19.79" departDelay="0.00" arrival="110.00" arrivalLane="-E1_1" arrivalPos="498.92" arrivalSpeed="19.79" duration="51.00" routeLength="995.07" waitingTime="0.00" waitingCount="0" stopTime="0.00" timeLoss="0.48" rerouteNo="0" devices="tripinfo_SN.5 routing_SN.5" vType="car" speedFactor="0.98" vaporized=""/>
    <tripinfo id="NS.3" depart="18.00" departLane="E1_1" departPos="5.10" departSpeed="18.66" departDelay="0.00" arrival="111.00" arrivalLane="E3_0" arrivalPos="501.31" arrivalSpeed="18.25" duration="93.00" routeLength="994.98" waitingTime="28.00" waitingCount="1" stopTime="0.00" timeLoss="39.57" rerouteNo="0" devices="tripinfo_NS.3 routing_NS.3" vType="car" speedFactor="0.93" vaporized=""/>
    <tripinfo id="NS.5" depart="26.00" departLane="E1_1" departPos="5.10" departSpeed="22.03" departDelay="0.00" arrival="111.00" arrivalLane="E3_1" arrivalPos="501.31" arrivalSpeed="21.96" duration="85.00" routeLength="994.98" waitingTime="24.00" waitingCount="1" stopTime="0.00" timeLoss="39.48" rerouteNo="0" devices="tripinfo_NS.5 routing_NS.5" vType="car" speedFactor="1.09" vaporized=""/>
    <tripinfo id="SW.1" depart="38.00" departLane="-E3_3" departPos="5.10" departSpeed="19.14" departDelay="0.00" arrival="111.00" arrivalLane="-E0_1" arrivalPos="500.03" arrivalSpeed="14.76" duration="73.00" routeLength="996.18" waitingTime="0.00" waitingCount="0" stopTime="0.00" timeLoss="12.73" rerouteNo="0" devices="tripinfo_SW.1 routing_SW.1" vType="car" speedFactor="0.95" vaporized=""/>
    <tripinfo id="NS.7" depart="35.00" departLane="E1_2" departPos="5.10" departSpeed="19.52" departDelay="0.00" arrival="114.00" arrivalLane="E3_0" arrivalPos="501.31" arrivalSpeed="19.20" duration="79.00" routeLength="994.98" waitingTime="11.00" waitingCount="1" stopTime="0.00" timeLoss="27.32" rerouteNo="0" devices="tripinfo_NS.7 routing_NS.7" vType="car" speedFactor="0.97" vaporized=""/>
    <tripinfo id="NS.6" depart="32.00" departLane="E1_1" departPos="5.10" departSpeed="18.70" departDelay="0.00" arrival="116.00" arrivalLane="E3_1" arrivalPos="501.31" arrivalSpeed="18.69" duration="84.00" routeLength="994.98" waitingTime="16.00" waitingCount="1" stopTime="0.00" timeLoss="30.01" rerouteNo="0" devices="tripinfo_NS.6 routing_NS.6" vType="car" speedFactor="0.93" vaporized=""/>
    <tripinfo id="NS.8" depart="38.00" departLane="E1_1" departPos="5.10" departSpeed="18.60" departDelay="0.00" arrival="117.00" arrivalLane="E3_0" arrivalPos="501.31" arrivalSpeed="18.47" duration="79.00" routeLength="994.98" waitingTime="7.00" waitingCount="1" stopTime="0.00" timeLoss="24.71" rerouteNo="0" devices="tripinfo_NS.8 routing_NS.8" vType="car" speedFactor="0.92" vaporized=""/>
    <tripinfo id="NS.9" depart="45.00" departLane="E1_2" departPos="5.10" departSpeed="20.90" departDelay="0.00" arrival="118.00" arrivalLane="E3_1" arrivalPos="501.31" arrivalSpeed="19.97" duration="73.00" routeLength="994.98" waitingTime="7.00" waitingCount="1" stopTime="0.00" timeLoss="24.67" rerouteNo="0" devices="tripinfo_NS.9 routing_NS.9" vType="car" speedFactor="1.04" vaporized=""/>
    <tripinfo id="SN.7" depart="67.00" departLane="-E3_2" departPos="5.10" departSpeed="19.95" departDelay="0.00" arrival="118.00" arrivalLane="-E1_0" arrivalPos="498.92" arrivalSpeed="19.95" duration="51.00" routeLength="995.07" waitingTime="0.00" waitingCount="0" stopTime="0.00" timeLoss="0.27" rerouteNo="0" devices="tripinfo_SN.7 routing_SN.7" vType="car" speedFactor="0.99" vaporized=""/>
    <tripinfo id="NS.10" depart="47.00" departLane="E1_1" departPos="5.10" departSpeed="18.80" departDelay="0.00" arrival="119.00" arrivalLane="E3_0" arrivalPos="501.31" arrivalSpeed="18.42" duration="72.00" routeLength="994.98" waitingTime="1.00" waitingCount="1" stopTime="0.00" timeLoss="18.78" rerouteNo="0" devices="tripinfo_NS.10 routing_NS.10" vType="car" speedFactor="0.93" vaporized=""/>
    <tripinfo id="NS.11" depart="52.00" departLane="E1_2" departPos="5.10" departSpeed="19.69" departDelay="0.00" arrival="120.00" arrivalLane="E3_1" arrivalPos="501.31" arrivalSpeed="19.22" duration="68.00" routeLength="994.98" waitingTime="0.00" waitingCount="0" stopTime="0.00" timeLoss="17.12" rerouteNo="0" devices="tripinfo_NS.11 routing_NS.11" vType="car" speedFactor="0.98" vaporized=""/>
    <tripinfo id="NS.12" depart="56.00" departLane="E1_1" departPos="5.10" departSpeed="20.45" departDelay="0.00" arrival="121.00" arrivalLane="E3_0" arrivalPos="501.31" arrivalSpeed="19.34" duration="65.00" routeLength="994.98" waitingTime="0.00" waitingCount="0" stopTime="0.00" timeLoss="15.93" rerouteNo="0" devices="tripinfo_NS.12 routing_NS.12" vType="car" speedFactor="1.02" vaporized=""/>
    <tripinfo id="SN.6" depart="66.00" departLane="-E3_1" departPos="5.10" departSpeed="18.52" departDelay="0.00" arrival="121.00" arrivalLane="-E1_1" arrivalPos="498.92" arrivalSpeed="18.52" duration="55.00" routeLength="995.07" waitingTime="0.00" waitingCount="0" stopTime="0.00" timeLoss="0.82" rerouteNo="0" devices="tripinfo_SN.6 routing_SN.6" vType="car" speedFactor="0.92" vaporized=""/>
    <tripinfo id="NS.13" depart="62.00" departLane="E1_1" departPos="5.10" departSpeed="18.95" departDelay="0.00" arrival="123.00" arrivalLane="E3_1" arrivalPos="501.31" arrivalSpeed="18.75" duration="61.00" routeLength="994.98" waitingTime="0.00" waitingCount="0" stopTime="0.00" timeLoss="7.71" rerouteNo="0" devices="tripinfo_NS.13 routing_NS.13" vType="car" speedFactor="0.94" vaporized=""/>
    <tripinfo id="SN.8" depart="69.00" departLane="-E3_1" departPos="5.10" departSpeed="19.55" departDelay="0.00" arrival="123.00" arrivalLane="-E1_1" arrivalPos="498.92" arrivalSpeed="19.02" duration="54.00" routeLength="995.07" waitingTime="0.00" waitingCount="0" stopTime="0.00" timeLoss="2.92" rerouteNo="0" devices="tripinfo_SN.8 routing_SN.8" vType="car" speedFactor="0.97" vaporized=""/>
    <tripinfo id="NS.14" depart="63.00" departLane="E1_2" departPos="5.10" departSpeed="18.13" departDelay="0.00" arrival="125.00" arrivalLane="E3_0" arrivalPos="501.31" arrivalSpeed="18.09" duration="62.00" routeLength="994.98" waitingTime="0.00" waitingCount="0" stopTime="0.00" timeLoss="6.63" rerouteNo="0" devices="tripinfo_NS.14 routing_NS.14" vType="car" speedFactor="0.90" vaporized=""/>
    <tripinfo id="EN.0" depart="41.00" departLane="-E2_0" departPos="5.10" departSpeed="15.64" departDelay="0.00" arrival="130.00" arrivalLane="-E1_0" arrivalPos="498.92" arrivalSpeed="20.11" duration="89.00" routeLength="1000.49" waitingTime="18.00" waitingCount="1" stopTime="0.00" timeLoss="31.91" rerouteNo="0" devices="tripinfo_EN.0 routing_EN.0" vType="car" speedFactor="1.00" vaporized=""/>
    <tripinfo id="WN.2" depart="27.00" departLane="E0_2" departPos="5.10" departSpeed="15.07" departDelay="0.00" arrival="131.00" arrivalLane="-E1_0" arrivalPos="498.92" arrivalSpeed="19.38" duration="104.00" routeLength="993.15" waitingTime="34.00" waitingCount="1" stopTime="0.00" timeLoss="45.06" rerouteNo="0" devices="tripinfo_WN.2 routing_WN.2" vType="car" speedFactor="0.96" vaporized=""/>
    <tripinfo id="WS.2" depart="46.00" departLane="E0_0" departPos="5.10" departSpeed="15.53" departDelay="0.00" arrival="131.00" arrivalLane="E3_1" arrivalPos="501.31" arrivalSpeed="19.96" duration="85.00" routeLength="995.54" waitingTime="15.00" waitingCount="1" stopTime="0.00" timeLoss="27.17" rerouteNo="0" devices="tripinfo_WS.2 routing_WS.2" vType="car" speedFactor="0.99" vaporized=""/>
    <tripinfo id="ES.1" depart="23.00" departLane="-E2_3" departPos="5.10" departSpeed="14.12" departDelay="0.00" arrival="133.00" arrivalLane="E3_1" arrivalPos="501.31" arrivalSpeed="17.96" duration="110.00" routeLength="1002.88" waitingTime="35.00" waitingCount="1" stopTime="0.00" timeLoss="46.57" rerouteNo="0" devices="tripinfo_ES.1 routing_ES.1" vType="car" speedFactor="0.90" vaporized=""/>
    <tripinfo id="SE.2" depart="67.00" departLane="-E3_0" departPos="5.10" departSpeed="23.61" departDelay="0.00" arrival="133.00" arrivalLane="E2_0" arrivalPos="508.36" arrivalSpeed="18.36" duration="66.00" routeLength="1004.51" waitingTime="0.00" waitingCount="0" stopTime="0.00" timeLoss="16.42" rerouteNo="0" devices="tripinfo_SE.2 routing_SE.2" vType="car" speedFactor="1.17" vaporized=""/>
    <tripinfo id="NW.5" depart="70.00" departLane="E1_0" departPos="5.10" departSpeed="22.24" departDelay="0.00" arrival="134.00" arrivalLane="-E0_0" arrivalPos="500.03" arrivalSpeed="17.30" duration="64.00" routeLength="993.70" waitingTime="0.00" waitingCount="0" stopTime="0.00" timeLoss="12.04" rerouteNo="0" devices="tripinfo_NW.5 routing_NW.5" vType="car" speedFactor="1.11" vaporized=""/>
    <tripinfo id="ES.2" depart="31.00" departLane="-E2_3" departPos="5.10" departSpeed="16.38" departDelay="0.00" arrival="135.00" arrivalLane="E3_1" arrivalPos="501.31" arrivalSpeed="19.61" duration="104.00" routeLength="1002.88" waitingTime="33.00" waitingCount="1" stopTime="0.00" timeLoss="49.12" rerouteNo="0" devices="tripinfo_ES.2 routing_ES.2" vType="car" speedFactor="1.05" vaporized=""/>
    <tripinfo id="SE.3" depart="70.00" departLane="-E3_0" departPos="5.10" departSpeed="22.70" departDelay="0.00" arrival="136.00" arrivalLane="E2_0" arrivalPos="508.36" arrivalSpeed="17.66" duration="66.00" routeLength="1004.51" waitingTime="0.00" waitingCount="0" stopTime="0.00" timeLoss="14.68" rerouteNo="0" devices="tripinfo_SE.3 routing_SE.3" vType="car" speedFactor="1.13" vaporized=""/>
    <tripinfo id="EW.6" depart="69.00" departLane="-E2_1" departPos="5.10" departSpeed="18.24" departDelay="0.00" arrival="142.00" arrivalLane="-E0_0" arrivalPos="500.03" arrivalSpeed="18.23" duration="73.00" routeLength="1001.60" waitingTime="1.00" waitingCount="1" stopTime="0.00" timeLoss="18.04" rerouteNo="0" devices="tripinfo_EW.6 routing_EW.6" vType="car" speedFactor="1.17" vaporized=""/>
    <tripinfo id="SE.4" depart="71.00" departLane="-E3_0" departPos="5.10" departSpeed="18.54" departDelay="0.00" arrival="144.00" arrivalLane="E2_0" arrivalPos="508.36" arrivalSpeed="17.21" duration="73.00" routeLength="1004.51" waitingTime="0.00" waitingCount="0" stopTime="0.00" timeLoss="20.82" rerouteNo="0" devices="tripinfo_SE.4 routing_SE.4" vType="car" speedFactor="1.10" vaporized=""/>
    <tripinfo id="WE.3" depart="52.00" departLane="E0_1" departPos="5.10" departSpeed="17.47" departDelay="0.00" arrival="145.00" arrivalLane="E2_0" arrivalPos="508.36" arrivalSpeed="17.47" duration="93.00" routeLength="1002.59" waitingTime="24.00" waitingCount="1" stopTime="0.00" timeLoss="35.11" rerouteNo="0" devices="tripinfo_WE.3 routing_WE.3" vType="car" speedFactor="1.12" vaporized=""/>
    <tripinfo id="EW.8" depart="73.00" departLane="-E2_1" departPos="5.10" departSpeed="17.22" departDelay="0.00" arrival="147.00" arrivalLane="-E0_0" arrivalPos="500.03" arrivalSpeed="17.22" duration="74.00" routeLength="1001.60" waitingTime="1.00" waitingCount="1" stopTime="0.00" timeLoss="14.95" rerouteNo="0" devices="tripinfo_EW.8 routing_EW.8" vType="car" speedFactor="1.10" vaporized=""/>
    <tripinfo id="EW.5" depart="43.00" departLane="-E2_1" departPos="5.10" departSpeed="14.97" departDelay="0.00" arrival="148.00" arrivalLane="-E0_0" arrivalPos="500.03" arrivalSpeed="14.41" duration="105.00" routeLength="1001.60" waitingTime="27.00" waitingCount="1" stopTime="0.00" timeLoss="38.01" rerouteNo="0" devices="tripinfo_EW.5 routing_EW.5" vType="car" speedFactor="0.96" vaporized=""/>
    <tripinfo id="WE.4" depart="67.00" departLane="E0_0" departPos="5.10" departSpeed="15.91" departDelay="0.00" arrival="150.00" arrivalLane="E2_0" arrivalPos="508.36" arrivalSpeed="15.91" duration="83.00" routeLength="1002.59" waitingTime="4.00" waitingCount="1" stopTime="0.00" timeLoss="19.29" rerouteNo="0" devices="tripinfo_WE.4 routing_WE.4" vType="car" speedFactor="1.02" vaporized=""/>
    <tripinfo id="EW.9" depart="77.00" departLane="-E2_0" departPos="5.10" departSpeed="16.42" departDelay="0.00" arrival="151.00" arrivalLane="-E0_1" arrivalPos="500.03" arrivalSpeed="16.41" duration="74.00" routeLength="1001.60" waitingTime="0.00" waitingCount="0" stopTime="0.00" timeLoss="12.00" rerouteNo="0" devices="tripinfo_EW.9 routing_EW.9" vType="car" speedFactor="1.05" vaporized=""/>
    <tripinfo id="WE.5" depart="71.00" departLane="E0_1" departPos="5.10" departSpeed="14.30" departDelay="0.00" arrival="153.00" arrivalLane="E2_0" arrivalPos="508.36" arrivalSpeed="14.27" duration="82.00" routeLength="1002.59" waitingTime="1.00" waitingCount="1" stopTime="0.00" timeLoss="11.77" rerouteNo="0" devices="tripinfo_WE.5 routing_WE.5" vType="car" speedFactor="0.91" vaporized=""/>
    <tripinfo id="EW.7" depart="72.00" departLane="-E2_0" departPos="5.10" departSpeed="13.78" departDelay="0.00" arrival="153.00" arrivalLane="-E0_0" arrivalPos="500.03" arrivalSpeed="13.78" duration="81.00" routeLength="1001.60" waitingTime="0.00" waitingCount="0" stopTime="0.00" timeLoss="8.00" rerouteNo="0" devices="tripinfo_EW.7 routing_EW.7" vType="car" speedFactor="0.88" vaporized=""/>
    <tripinfo id="EW.11" depart="86.00" departLane="-E2_0" departPos="5.10" departSpeed="17.41" departDelay="0.00" arrival="153.00" arrivalLane="-E0_1" arrivalPos="500.03" arrivalSpeed="17.01" duration="67.00" routeLength="1001.60" waitingTime="0.00" waitingCount="0" stopTime="0.00" timeLoss="8.91" rerouteNo="0" devices="tripinfo_EW.11 routing_EW.11" vType="car" speedFactor="1.11" vaporized=""/>
    <tripinfo id="EW.10" depart="80.00" departLane="-E2_1" departPos="5.10" departSpeed="15.46" departDelay="0.00" arrival="155.00" arrivalLane="-E0_0" arrivalPos="500.03" arrivalSpeed="14.97" duration="75.00" routeLength="1001.60" waitingTime="0.00" waitingCount="0" stopTime="0.00" timeLoss="9.99" rerouteNo="0" devices="tripinfo_EW.10 routing_EW.10" vType="car" speedFactor="0.99" vaporized=""/>
    <tripinfo id="SN.10" depart="84.00" departLane="-E3_1" departPos="5.10" departSpeed="22.96" departDelay="0.00" arrival="156.00" arrivalLane="-E1_0" arrivalPos="498.92" arrivalSpeed="22.96" duration="72.00" routeLength="995.07" waitingTime="15.00" waitingCount="1" stopTime="0.00" timeLoss="27.90" rerouteNo="0" devices="tripinfo_SN.10 routing_SN.10" vType="car" speedFactor="1.14" vaporized=""/>
    <tripinfo id="WE.6" depart="86.00" departLane="E0_1" departPos="5.10" departSpeed="14.91" departDelay="0.00" arrival="156.00" arrivalLane="E2_1" arrivalPos="508.36" arrivalSpeed="14.88" duration="70.00" routeLength="1002.59" waitingTime="0.00" waitingCount="0" stopTime="0.00" timeLoss="2.05" rerouteNo="0" devices="tripinfo_WE.6 routing_WE.6" vType="car" speedFactor="0.95" vaporized=""/>
    <tripinfo id="SN.9" depart="78.00" departLane="-E3_2" departPos="5.10" departSpeed="21.06" departDelay="0.00" arrival="158.00" arrivalLane="-E1_0" arrivalPos="498.92" arrivalSpeed="20.65" duration="80.00" routeLength="995.07" waitingTime="19.00" waitingCount="1" stopTime="0.00" timeLoss="31.99" rerouteNo="0" devices="tripinfo_SN.9 routing_SN.9" vType="car" speedFactor="1.05" vaporized=""/>
    <tripinfo id="SE.5" depart="93.00" departLane="-E3_0" departPos="5.10" departSpeed="19.42" departDelay="0.00" arrival="159.00" arrivalLane="E2_0" arrivalPos="508.36" arrivalSpeed="15.10" duration="66.00" routeLength="1004.51" waitingTime="0.00" waitingCount="0" stopTime="0.00" timeLoss="6.03" rerouteNo="0" devices="tripinfo_SE.5 routing_SE.5" vType="car" speedFactor="0.97" vaporized=""/>
    <tripinfo id="SN.11" depart="86.00" departLane="-E3_2" departPos="5.10" departSpeed="20.39" departDelay="0.00" arrival="160.00" arrivalLane="-E1_1" arrivalPos="498.92" arrivalSpeed="20.39" duration="74.00" routeLength="995.07" waitingTime="12.00" waitingCount="1" stopTime="0.00" timeLoss="25.07" rerouteNo="0" devices="tripinfo_SN.11 routing_SN.11" vType="car" speedFactor="1.01" vaporized=""/>
    <tripinfo id="SN.12" depart="87.00" departLane="-E3_1" departPos="5.10" departSpeed="19.94" departDelay="0.00" arrival="161.00" arrivalLane="-E1_0" arrivalPos="498.92" arrivalSpeed="19.83" duration="74.00" routeLength="995.07" waitingTime="10.00" waitingCount="1" stopTime="0.00" timeLoss="23.82" rerouteNo="0" devices="tripinfo_SN.12 routing_SN.12" vType="car" speedFactor="0.99" vaporized=""/>
    <tripinfo id="SW.2" depart="86.00" departLane="-E3_3" departPos="5.10" departSpeed="21.79" departDelay="0.00" arrival="162.00" arrivalLane="-E0_0" arrivalPos="500.03" arrivalSpeed="16.95" duration="76.00" routeLength="996.18" waitingTime="11.00" waitingCount="1" stopTime="0.00" timeLoss="23.59" rerouteNo="0" devices="tripinfo_SW.2 routing_SW.2" vType="car" speedFactor="1.08" vaporized=""/>