<?xml version="1.0" encoding="UTF-8"?>

<!-- generated on 2023-01-30 20:11:07 by Eclipse SUMO sumo Version 1.13.0
<configuration xmlns:xsi="http://www.w3.org/2001/XMLSchema-instance" xsi:noNamespaceSchemaLocation="http://sumo.dlr.de/xsd/sumoConfiguration.xsd">

    <input>
        <net-file value="data/Eastway-Central.net.xml"/>
        <route-files value="data/Eastway-Central-offpeak.rou.xml"/>
        <additional-files value="data/Eastway-Central.add.xml"/>
    </input>

    <output>
        <tripinfo-output value="result\2023-01-30-20-07-31\21_tripinfo.xml"/>
    </output>

    <report>
        <no-warnings value="true"/>
        <no-step-log value="true"/>
    </report>

    <traci_server>
        <remote-port value="51501"/>
    </traci_server>

    <random_number>
        <seed value="20"/>
    </random_number>

</configuration>
-->

<tripinfos xmlns:xsi="http://www.w3.org/2001/XMLSchema-instance" xsi:noNamespaceSchemaLocation="http://sumo.dlr.de/xsd/tripinfo_file.xsd">
    <tripinfo id="BNS.0" depart="0.00" departLane="E1_1" departPos="12.10" departSpeed="20.12" departDelay="0.00" arrival="50.00" arrivalLane="E3_0" arrivalPos="501.31" arrivalSpeed="20.12" duration="50.00" routeLength="987.98" waitingTime="0.00" waitingCount="0" stopTime="0.00" timeLoss="0.19" rerouteNo="0" devices="tripinfo_BNS.0 routing_BNS.0" vType="bus" speedFactor="1.00" vaporized=""/>
    <tripinfo id="SN.0" depart="8.00" departLane="-E3_1" departPos="5.10" departSpeed="20.35" departDelay="0.00" arrival="57.00" arrivalLane="-E1_0" arrivalPos="498.92" arrivalSpeed="20.35" duration="49.00" routeLength="995.07" waitingTime="0.00" waitingCount="0" stopTime="0.00" timeLoss="0.01" rerouteNo="0" devices="tripinfo_SN.0 routing_SN.0" vType="car" speedFactor="1.01" vaporized=""/>
    <tripinfo id="WS.0" depart="2.00" departLane="E0_0" departPos="5.10" departSpeed="17.47" departDelay="0.00" arrival="60.00" arrivalLane="E3_0" arrivalPos="501.31" arrivalSpeed="22.46" duration="58.00" routeLength="995.54" waitingTime="0.00" waitingCount="0" stopTime="0.00" timeLoss="7.41" rerouteNo="0" devices="tripinfo_WS.0 routing_WS.0" vType="car" speedFactor="1.12" vaporized=""/>
    <tripinfo id="SW.0" depart="0.00" departLane="-E3_3" departPos="5.10" departSpeed="20.55" departDelay="0.00" arrival="68.00" arrivalLane="-E0_0" arrivalPos="500.03" arrivalSpeed="15.98" duration="68.00" routeLength="996.18" waitingTime="0.00" waitingCount="0" stopTime="0.00" timeLoss="11.82" rerouteNo="0" devices="tripinfo_SW.0 routing_SW.0" vType="car" speedFactor="1.02" vaporized=""/>
    <tripinfo id="NS.2" depart="12.00" departLane="E1_2" departPos="5.10" departSpeed="20.17" departDelay="0.00" arrival="72.00" arrivalLane="E3_1" arrivalPos="501.31" arrivalSpeed="20.17" duration="60.00" routeLength="994.98" waitingTime="0.00" waitingCount="0" stopTime="0.00" timeLoss="10.28" rerouteNo="0" devices="tripinfo_NS.2 routing_NS.2" vType="car" speedFactor="1.00" vaporized=""/>
    <tripinfo id="NS.0" depart="6.00" departLane="E1_2" departPos="5.10" departSpeed="19.44" departDelay="0.00" arrival="73.00" arrivalLane="E3_0" arrivalPos="501.31" arrivalSpeed="19.44" duration="67.00" routeLength="994.98" waitingTime="4.00" waitingCount="1" stopTime="0.00" timeLoss="15.37" rerouteNo="0" devices="tripinfo_NS.0 routing_NS.0" vType="car" speedFactor="0.97" vaporized=""/>
    <tripinfo id="NS.3" depart="21.00" departLane="E1_1" departPos="5.10" departSpeed="23.14" departDelay="0.00" arrival="74.00" arrivalLane="E3_1" arrivalPos="501.31" arrivalSpeed="21.82" duration="53.00" routeLength="994.98" waitingTime="0.00" waitingCount="0" stopTime="0.00" timeLoss="9.52" rerouteNo="0" devices="tripinfo_NS.3 routing_NS.3" vType="car" speedFactor="1.15" vaporized=""/>
    <tripinfo id="SN.1" depart="27.00" departLane="-E3_2" departPos="5.10" departSpeed="21.47" departDelay="0.00" arrival="74.00" arrivalLane="-E1_0" arrivalPos="498.92" arrivalSpeed="21.47" duration="47.00" routeLength="995.07" waitingTime="0.00" waitingCount="0" stopTime="0.00" timeLoss="0.10" rerouteNo="0" devices="tripinfo_SN.1 routing_SN.1" vType="car" speedFactor="1.07" vaporized=""/>
    <tripinfo id="SN.2" depart="32.00" departLane="-E3_1" departPos="5.10" departSpeed="23.19" departDelay="0.00" arrival="76.00" arrivalLane="-E1_1" arrivalPos="498.92" arrivalSpeed="23.19" duration="44.00" routeLength="995.07" waitingTime="0.00" waitingCount="0" stopTime="0.00" timeLoss="0.36" rerouteNo="0" devices="tripinfo_SN.2 routing_SN.2" vType="car" speedFactor="1.15" vaporized=""/>
    <tripinfo id="NS.1" depart="9.00" departLane="E1_1" departPos="5.10" departSpeed="17.97" departDelay="0.00" arrival="78.00" arrivalLane="E3_0" arrivalPos="501.31" arrivalSpeed="17.96" duration="69.00" routeLength="994.98" waitingTime="0.00" waitingCount="0" stopTime="0.00" timeLoss="12.69" rerouteNo="0" devices="tripinfo_NS.1 routing_NS.1" vType="car" speedFactor="0.89" vaporized=""/>
    <tripinfo id="NS.5" depart="26.00" departLane="E1_2" departPos="5.10" departSpeed="18.25" departDelay="0.00" arrival="83.00" arrivalLane="E3_0" arrivalPos="501.31" arrivalSpeed="18.24" duration="57.00" routeLength="994.98" waitingTime="0.00" waitingCount="0" stopTime="0.00" timeLoss="1.71" rerouteNo="0" devices="tripinfo_NS.5 routing_NS.5" vType="car" speedFactor="0.91" vaporized=""/>
    <tripinfo id="NS.6" depart="34.00" departLane="E1_1" departPos="5.10" departSpeed="21.56" departDelay="0.00" arrival="84.00" arrivalLane="E3_1" arrivalPos="501.31" arrivalSpeed="21.56" duration="50.00" routeLength="994.98" waitingTime="0.00" waitingCount="0" stopTime="0.00" timeLoss="2.86" rerouteNo="0" devices="tripinfo_NS.6 routing_NS.6" vType="car" speedFactor="1.07" vaporized=""/>
    <tripinfo id="NS.4" depart="25.00" departLane="E1_1" departPos="5.10" departSpeed="16.90" departDelay="0.00" arrival="86.00" arrivalLane="E3_0" arrivalPos="501.31" arrivalSpeed="16.84" duration="61.00" routeLength="994.98" waitingTime="0.00" waitingCount="0" stopTime="0.00" timeLoss="1.57" rerouteNo="0" devices="tripinfo_NS.4 routing_NS.4" vType="car" speedFactor="0.84" vaporized=""/>
    <tripinfo id="NS.7" depart="35.00" departLane="E1_2" departPos="5.10" departSpeed="20.07" departDelay="0.00" arrival="88.00" arrivalLane="E3_1" arrivalPos="501.31" arrivalSpeed="20.05" duration="53.00" routeLength="994.98" waitingTime="0.00" waitingCount="0" stopTime="0.00" timeLoss="3.28" rerouteNo="0" devices="tripinfo_NS.7 routing_NS.7" vType="car" speedFactor="1.00" vaporized=""/>
    <tripinfo id="NS.8" depart="36.00" departLane="E1_1" departPos="5.10" departSpeed="21.21" departDelay="0.00" arrival="89.00" arrivalLane="E3_0" arrivalPos="501.31" arrivalSpeed="20.49" duration="53.00" routeLength="994.98" waitingTime="0.00" waitingCount="0" stopTime="0.00" timeLoss="5.85" rerouteNo="0" devices="tripinfo_NS.8 routing_NS.8" vType="car" speedFactor="1.05" vaporized=""/>
    <tripinfo id="NE.0" depart="20.00" departLane="E1_3" departPos="5.10" departSpeed="21.94" departDelay="0.00" arrival="94.00" arrivalLane="E2_0" arrivalPos="508.36" arrivalSpeed="17.07" duration="74.00" routeLength="1002.03" waitingTime="9.00" waitingCount="1" stopTime="0.00" timeLoss="20.73" rerouteNo="0" devices="tripinfo_NE.0 routing_NE.0" vType="car" speedFactor="1.09" vaporized=""/>
    <tripinfo id="NS.9" depart="38.00" departLane="E1_2" departPos="5.10" departSpeed="18.50" departDelay="0.00" arrival="94.00" arrivalLane="E3_0" arrivalPos="501.31" arrivalSpeed="18.49" duration="56.00" routeLength="994.98" waitingTime="0.00" waitingCount="0" stopTime="0.00" timeLoss="1.72" rerouteNo="0" devices="tripinfo_NS.9 routing_NS.9" vType="car" speedFactor="0.92" vaporized=""/>
    <tripinfo id="NE.1" depart="23.00" departLane="E1_3" departPos="5.10" departSpeed="22.26" departDelay="0.00" arrival="96.00" arrivalLane="E2_1" arrivalPos="508.36" arrivalSpeed="17.20" duration="73.00" routeLength="1002.03" waitingTime="8.00" waitingCount="1" stopTime="0.00" timeLoss="21.35" rerouteNo="0" devices="tripinfo_NE.1 routing_NE.1" vType="car" speedFactor="1.11" vaporized=""/>
    <tripinfo id="NS.10" depart="48.00" departLane="E1_1" departPos="5.10" departSpeed="21.14" departDelay="0.00" arrival="97.00" arrivalLane="E3_1" arrivalPos="501.31" arrivalSpeed="21.14" duration="49.00" routeLength="994.98" waitingTime="0.00" waitingCount="0" stopTime="0.00" timeLoss="0.96" rerouteNo="0" devices="tripinfo_NS.10 routing_NS.10" vType="car" speedFactor="1.05" vaporized=""/>
    <tripinfo id="NW.0" depart="34.00" departLane="E1_0" departPos="5.10" departSpeed="19.26" departDelay="0.00" arrival="99.00" arrivalLane="-E0_0" arrivalPos="500.03" arrivalSpeed="14.98" duration="65.00" routeLength="993.70" waitingTime="0.00" waitingCount="0" stopTime="0.00" timeLoss="5.19" rerouteNo="0" devices="tripinfo_NW.0 routing_NW.0" vType="car" speedFactor="0.96" vaporized=""/>
    <tripinfo id="SN.4" depart="38.00" departLane="-E3_1" departPos="5.10" departSpeed="21.77" departDelay="0.00" arrival="99.00" arrivalLane="-E1_0" arrivalPos="498.92" arrivalSpeed="21.77" duration="61.00" routeLength="995.07" waitingTime="1.00" waitingCount="1" stopTime="0.00" timeLoss="14.45" rerouteNo="0" devices="tripinfo_SN.4 routing_SN.4" vType="car" speedFactor="1.08" vaporized=""/>
    <tripinfo id="WS.1" depart="30.00" departLane="E0_0" departPos="5.10" departSpeed="15.82" departDelay="0.00" arrival="101.00" arrivalLane="E3_0" arrivalPos="501.31" arrivalSpeed="20.33" duration="71.00" routeLength="995.54" waitingTime="5.00" waitingCount="1" stopTime="0.00" timeLoss="14.59" rerouteNo="0" devices="tripinfo_WS.1 routing_WS.1" vType="car" speedFactor="1.01" vaporized=""/>
    <tripinfo id="SN.3" depart="34.00" departLane="-E3_2" departPos="5.10" departSpeed="19.45" departDelay="0.00" arrival="101.00" arrivalLane="-E1_0" arrivalPos="498.92" arrivalSpeed="19.28" duration="67.00" routeLength="995.07" waitingTime="4.00" waitingCount="1" stopTime="0.00" timeLoss="15.73" rerouteNo="0" devices="tripinfo_SN.3 routing_SN.3" vType="car" speedFactor="0.97" vaporized=""/>
    <tripinfo id="SN.5" depart="40.00" departLane="-E3_2" departPos="5.10" departSpeed="18.33" departDelay="0.00" arrival="105.00" arrivalLane="-E1_1" arrivalPos="498.92" arrivalSpeed="18.33" duration="65.00" routeLength="995.07" waitingTime="0.00" waitingCount="0" stopTime="0.00" timeLoss="9.72" rerouteNo="0" devices="tripinfo_SN.5 routing_SN.5" vType="car" speedFactor="0.91" vaporized=""/>
    <tripinfo id="NW.1" depart="42.00" departLane="E1_0" departPos="5.10" departSpeed="20.56" departDelay="0.00" arrival="105.00" arrivalLane="-E0_0" arrivalPos="500.03" arrivalSpeed="15.99" duration="63.00" routeLength="993.70" waitingTime="0.00" waitingCount="0" stopTime="0.00" timeLoss="7.36" rerouteNo="0" devices="tripinfo_NW.1 routing_NW.1" vType="car" speedFactor="1.02" vaporized=""/>
    <tripinfo id="SN.6" depart="48.00" departLane="-E3_1" departPos="5.10" departSpeed="20.28" departDelay="0.00" arrival="105.00" arrivalLane="-E1_0" arrivalPos="498.92" arrivalSpeed="18.33" duration="57.00" routeLength="995.07" waitingTime="0.00" waitingCount="0" stopTime="0.00" timeLoss="7.76" rerouteNo="0" devices="tripinfo_SN.6 routing_SN.6" vType="car" speedFactor="1.01" vaporized=""/>
    <tripinfo id="SN.7" depart="53.00" departLane="-E3_1" departPos="5.10" departSpeed="21.67" departDelay="0.00" arrival="106.00" arrivalLane="-E1_1" arrivalPos="498.92" arrivalSpeed="19.46" duration="53.00" routeLength="995.07" waitingTime="0.00" waitingCount="0" stopTime="0.00" timeLoss="6.96" rerouteNo="0" devices="tripinfo_SN.7 routing_SN.7" vType="car" speedFactor="1.08" vaporized=""/>
    <tripinfo id="NS.11" depart="51.00" departLane="E1_1" departPos="5.10" departSpeed="17.71" departDelay="0.00" arrival="108.00" arrivalLane="E3_0" arrivalPos="501.31" arrivalSpeed="17.71" duration="57.00" routeLength="994.98" waitingTime="0.00" waitingCount="0" stopTime="0.00" timeLoss="0.54" rerouteNo="0" devices="tripinfo_NS.11 routing_NS.11" vType="car" speedFactor="0.88" vaporized=""/>
    <tripinfo id="SE.0" depart="51.00" departLane="-E3_0" departPos="5.10" departSpeed="20.01" departDelay="0.00" arrival="115.00" arrivalLane="E2_0" arrivalPos="508.36" arrivalSpeed="15.56" duration="64.00" routeLength="1004.51" waitingTime="0.00" waitingCount="0" stopTime="0.00" timeLoss="6.39" rerouteNo="0" devices="tripinfo_SE.0 routing_SE.0" vType="car" speedFactor="0.99" vaporized=""/>
    <tripinfo id="ES.1" depart="52.00" departLane="-E2_3" departPos="5.10" departSpeed="14.35" departDelay="0.00" arrival="118.00" arrivalLane="E3_0" arrivalPos="501.31" arrivalSpeed="18.45" duration="66.00" routeLength="1002.88" waitingTime="0.00" waitingCount="0" stopTime="0.00" timeLoss="3.28" rerouteNo="0" devices="tripinfo_ES.1 routing_ES.1" vType="car" speedFactor="0.92" vaporized=""/>
    <tripinfo id="ES.0" depart="35.00" departLane="-E2_2" departPos="5.10" departSpeed="18.45" departDelay="0.00" arrival="119.00" arrivalLane="E3_0" arrivalPos="501.31" arrivalSpeed="19.90" duration="84.00" routeLength="1002.88" waitingTime="18.00" waitingCount="1" stopTime="0.00" timeLoss="35.66" rerouteNo="0" devices="tripinfo_ES.0 routing_ES.0" vType="car" speedFactor="1.18" vaporized=""/>
    <tripinfo id="EW.2" depart="23.00" departLane="-E2_1" departPos="5.10" departSpeed="18.06" departDelay="0.00" arrival="120.00" arrivalLane="-E0_0" arrivalPos="500.03" arrivalSpeed="18.06" duration="97.00" routeLength="1001.60" waitingTime="29.00" waitingCount="1" stopTime="0.00" timeLoss="40.68" rerouteNo="0" devices="tripinfo_EW.2 routing_EW.2" vType="car" speedFactor="1.15" vaporized=""/>
    <tripinfo id="ES.2" depart="59.00" departLane="-E2_3" departPos="5.10" departSpeed="15.58" departDelay="0.00" arrival="120.00" arrivalLane="E3_1" arrivalPos="501.31" arrivalSpeed="20.01" duration="61.00" routeLength="1002.88" waitingTime="0.00" waitingCount="0" stopTime="0.00" timeLoss="3.25" rerouteNo="0" devices="tripinfo_ES.2 routing_ES.2" vType="car" speedFactor="1.00" vaporized=""/>
    <tripinfo id="ES.3" depart="60.00" departLane="-E2_2" departPos="5.10" departSpeed="17.48" departDelay="0.00" arrival="121.00" arrivalLane="E3_0" arrivalPos="501.31" arrivalSpeed="20.58" duration="61.00" routeLength="1002.88" waitingTime="0.00" waitingCount="0" stopTime="0.00" timeLoss="9.83" rerouteNo="0" devices="tripinfo_ES.3 routing_ES.3" vType="car" speedFactor="1.12" vaporized=""/>
    <tripinfo id="EW.0" depart="13.00" departLane="-E2_0" departPos="5.10" departSpeed="16.35" departDelay="0.00" arrival="123.00" arrivalLane="-E0_0" arrivalPos="500.03" arrivalSpeed="16.29" duration="110.00" routeLength="1001.60" waitingTime="37.00" waitingCount="1" stopTime="0.00" timeLoss="47.84" rerouteNo="0" devices="tripinfo_EW.0 routing_EW.0" vType="car" speedFactor="1.04" vaporized=""/>
    <tripinfo id="EN.0" depart="19.00" departLane="-E2_0" departPos="5.10" departSpeed="14.54" departDelay="0.00" arrival="124.00" arrivalLane="-E1_0" arrivalPos="498.92" arrivalSpeed="18.69" duration="105.00" routeLength="1000.49" waitingTime="30.00" waitingCount="1" stopTime="0.00" timeLoss="43.20" rerouteNo="0" devices="tripinfo_EN.0 routing_EN.0" vType="car" speedFactor="0.93" vaporized=""/>
    <tripinfo id="EW.3" depart="32.00" departLane="-E2_0" departPos="5.10" departSpeed="14.92" departDelay="0.00" arrival="127.00" arrivalLane="-E0_1" arrivalPos="500.03" arrivalSpeed="14.92" duration="95.00" routeLength="1001.60" waitingTime="16.00" waitingCount="1" stopTime="0.00" timeLoss="27.64" rerouteNo="0" devices="tripinfo_EW.3 routing_EW.3" vType="car" speedFactor="0.95" vaporized=""/>
    <tripinfo id="EW.1" depart="15.00" departLane="-E2_1" departPos="5.10" departSpeed="14.88" departDelay="0.00" arrival="128.00" arrivalLane="-E0_0" arrivalPos="500.03" arrivalSpeed="14.87" duration="113.00" routeLength="1001.60" waitingTime="33.00" waitingCount="1" stopTime="0.00" timeLoss="44.91" rerouteNo="0" devices="tripinfo_EW.1 routing_EW.1" vType="car" speedFactor="0.95" vaporized=""/>
    <tripinfo id="EW.4" depart="41.00" departLane="-E2_1" departPos="5.10" departSpeed="15.24" departDelay="0.00" arrival="130.00" arrivalLane="-E0_1" arrivalPos="500.03" arrivalSpeed="15.17" duration="89.00" routeLength="1001.60" waitingTime="9.00" waitingCount="1" stopTime="0.00" timeLoss="23.13" rerouteNo="0" devices="tripinfo_EW.4 routing_EW.4" vType="car" speedFactor="0.97" vaporized=""/>
    <tripinfo id="EN.1" depart="42.00" departLane="-E2_0" departPos="5.10" departSpeed="13.19" departDelay="0.00" arrival="130.00" arrivalLane="-E1_0" arrivalPos="498.92" arrivalSpeed="16.95" duration="88.00" routeLength="1000.49" waitingTime="5.00" waitingCount="1" stopTime="0.00" timeLoss="19.66" rerouteNo="0" devices="tripinfo_EN.1 routing_EN.1" vType="car" speedFactor="0.84" vaporized=""/>
    <tripinfo id="NW.2" depart="65.00" departLane="E1_0" departPos="5.10" departSpeed="20.61" departDelay="0.00" arrival="130.00" arrivalLane="-E0_0" arrivalPos="500.03" arrivalSpeed="15.67" duration="65.00" routeLength="993.70" waitingTime="0.00" waitingCount="0" stopTime="0.00" timeLoss="9.46" rerouteNo="0" devices="tripinfo_NW.2 routing_NW.2" vType="car" speedFactor="1.02" vaporized=""/>
    <tripinfo id="EW.5" depart="53.00" departLane="-E2_1" departPos="5.10" departSpeed="17.15" departDelay="0.00" arrival="132.00" arrivalLane="-E0_1" arrivalPos="500.03" arrivalSpeed="16.38" duration="79.00" routeLength="1001.60" waitingTime="2.00" waitingCount="1" stopTime="0.00" timeLoss="20.38" rerouteNo="0" devices="tripinfo_EW.5 routing_EW.5" vType="car" speedFactor="1.10" vaporized=""/>
    <tripinfo id="EW.6" depart="59.00" departLane="-E2_0" departPos="5.10" departSpeed="17.83" departDelay="0.00" arrival="134.00" arrivalLane="-E0_1" arrivalPos="500.03" arrivalSpeed="16.84" duration="75.00" routeLength="1001.60" waitingTime="0.00" waitingCount="0" stopTime="0.00" timeLoss="18.47" rerouteNo="0" devices="tripinfo_EW.6 routing_EW.6" vType="car" speedFactor="1.14" vaporized=""/>
    <tripinfo id="WS.2" depart="65.00" departLane="E0_0" departPos="5.10" departSpeed="15.25" departDelay="0.00" arrival="134.00" arrivalLane="E3_0" arrivalPos="501.31" arrivalSpeed="19.60" duration="69.00" routeLength="995.54" waitingTime="0.00" waitingCount="0" stopTime="0.00" timeLoss="10.53" rerouteNo="0" devices="tripinfo_WS.2 routing_WS.2" vType="car" speedFactor="0.97" vaporized=""/>
    <tripinfo id="NW.3" depart="68.00" departLane="E1_0" departPos="5.10" departSpeed="20.12" departDelay="0.00" arrival="135.00" arrivalLane="-E0_0" arrivalPos="500.03" arrivalSpeed="15.64" duration="67.00" routeLength="993.70" waitingTime="0.00" waitingCount="0" stopTime="0.00" timeLoss="9.65" rerouteNo="0" devices="tripinfo_NW.3 routing_NW.3" vType="car" speedFactor="1.00" vaporized=""/>
    <tripinfo id="WE.0" depart="43.00" departLane="E0_1" departPos="5.10" departSpeed="14.46" departDelay="0.00" arrival="137.00" arrivalLane="E2_1" arrivalPos="508.36" arrivalSpeed="14.46" duration="94.00" routeLength="1002.59" waitingTime="14.00" waitingCount="1" stopTime="0.00" timeLoss="24.50" rerouteNo="0" devices="tripinfo_WE.0 routing_WE.0" vType="car" speedFactor="0.92" vaporized=""/>
    <tripinfo id="WE.1" depart="51.00" departLane="E0_1" departPos="5.10" departSpeed="14.63" departDelay="0.00" arrival="137.00" arrivalLane="E2_0" arrivalPos="508.36" arrivalSpeed="14.63" duration="86.00" routeLength="1002.59" waitingTime="7.00" waitingCount="1" stopTime="0.00" timeLoss="16.94" rerouteNo="0" devices="tripinfo_WE.1 routing_WE.1" vType="car" speedFactor="0.93" vaporized=""/>
    <tripinfo id="WE.2" depart="62.00" departLane="E0_1" departPos="5.10" departSpeed="15.78" departDelay="0.00" arrival="139.00" arrivalLane="E2_0" arrivalPos="508.36" arrivalSpeed="15.46" duration="77.00" routeLength="1002.59" waitingTime="0.00" waitingCount="0" stopTime="0.00" timeLoss="13.44" rerouteNo="0" devices="tripinfo_WE.2 routing_WE.2" vType="car" speedFactor="1.01" vaporized=""/>
    <tripinfo id="WE.3" depart="69.00" departLane="E0_1" departPos="5.10" departSpeed="19.09" departDelay="0.00" arrival="139.00" arrivalLane="E2_1" arrivalPos="508.36" arrivalSpeed="17.19" duration="70.00" routeLength="1002.59" waitingTime="0.00" waitingCount="0" stopTime="0.00" timeLoss="16.99" rerouteNo="0" devices="tripinfo_WE.3 routing_WE.3" vType="car" speedFactor="1.22" vaporized=""/>
    <tripinfo id="WS.3" depart="75.00" departLane="E0_0" departPos="5.10" departSpeed="15.86" departDelay="0.00" arrival="139.00" arrivalLane="E3_0" arrivalPos="501.31" arrivalSpeed="20.36" duration="64.00" routeLength="995.54" waitingTime="0.00" waitingCount="0" stopTime="0.00" timeLoss="7.37" rerouteNo="0" devices="tripinfo_WS.3 routing_WS.3" vType="car" speedFactor="1.01" vaporized=""/>
    <tripinfo id="NW.5" depart="81.00" departLane="E1_0" departPos="5.10" departSpeed="22.82" departDelay="0.00" arrival="139.00" arrivalLane="-E0_1" arrivalPos="500.03" arrivalSpeed="17.74" duration="58.00" routeLength="993.70" waitingTime="0.00" waitingCount="0" stopTime="0.00" timeLoss="8.10" rerouteNo="0" devices="tripinfo_NW.5 routing_NW.5" vType="car" speedFactor="1.13" vaporized=""/>
    <tripinfo id="WE.4" depart="70.00" departLane="E0_0" departPos="5.10" departSpeed="17.43" departDelay="0.00" arrival="141.00" arrivalLane="E2_1" arrivalPos="508.36" arrivalSpeed="16.61" duration="71.00" routeLength="1002.59" waitingTime="0.00" waitingCount="0" stopTime="0.00" timeLoss="12.91" rerouteNo="0" devices="tripinfo_WE.4 routing_WE.4" vType="car" speedFactor="1.11" vaporized=""/>
    <tripinfo id="NW.4" depart="73.00" departLane="E1_0" departPos="5.10" departSpeed="17.40" departDelay="0.00" arrival="144.00" arrivalLane="-E0_0" arrivalPos="500.03" arrivalSpeed="13.54" duration="71.00" routeLength="993.70" waitingTime="0.00" waitingCount="0" stopTime="0.00" timeLoss="5.47" rerouteNo="0" devices="tripinfo_NW.4 routing_NW.4" vType="car" speedFactor="0.86" vaporized=""/>
    <tripinfo id="EW.8" depart="90.00" departLane="-E2_1" departPos="5.10" departSpeed="19.01" departDelay="0.00" arrival="144.00" arrivalLane="-E0_1" arrivalPos="500.03" arrivalSpeed="18.99" duration="54.00" routeLength="1001.60" waitingTime="0.00" waitingCount="0" stopTime="0.00" timeLoss="0.72" rerouteNo="0" devices="tripinfo_EW.8 routing_EW.8" vType="car" speedFactor="1.21" vaporized=""/>
    <tripinfo id="SE.1" depart="86.00" departLane="-E3_0" departPos="5.10" departSpeed="21.22" departDelay="0.00" arrival="148.00" arrivalLane="E2_1" arrivalPos="508.36" arrivalSpeed="16.51" duration="62.00" routeLength="1004.51" waitingTime="0.00" waitingCount="0" stopTime="0.00" timeLoss="7.19" rerouteNo="0" devices="tripinfo_SE.1 routing_SE.1" vType="car" speedFactor="1.05" vaporized=""/>
    <tripinfo id="NS.12" depart="61.00" departLane="E1_2" departPos="5.10" departSpeed="21.29" departDelay="0.00" arrival="149.00" arrivalLane="E3_1" arrivalPos="501.31" arrivalSpeed="21.29" duration="88.00" routeLength="994.98" waitingTime="28.00" waitingCount="1" stopTime="0.00" timeLoss="40.96" rerouteNo="0" devices="tripinfo_NS.12 routing_NS.12" vType="car" speedFactor="1.06" vaporized=""/>
    <tripinfo id="NS.13" depart="67.00" departLane="E1_1" departPos="5.10" departSpeed="20.17" departDelay="0.00" arrival="150.00" arrivalLane="E3_0" arrivalPos="501.31" arrivalSpeed="20.17" duration="83.00" routeLength="994.98" waitingTime="19.00" waitingCount="1" stopTime="0.00" timeLoss="33.46" rerouteNo="0" devices="tripinfo_NS.13 routing_NS.13" vType="car" speedFactor="1.00" vaporized=""/>
    <tripinfo id="EW.7" depart="73.00" departLane="-E2_1" departPos="5.10" departSpeed="13.31" departDelay="0.00" arrival="150.00" arrivalLane="-E0_0" arrivalPos="500.03" arrivalSpeed="13.31" duration="77.00" routeLength="1001.60" waitingTime="0.00" waitingCount="0" stopTime="0.00" timeLoss="0.94" rerouteNo="0" devices="tripinfo_EW.7 routing_EW.7" vType="car" speedFactor="0.85" vaporized=""/>
    <tripinfo id="WE.5" depart="79.00" departLane="E0_1" departPos="5.10" departSpeed="14.45" departDelay="0.00" arrival="150.00" arrivalLane="E2_0" arrivalPos="508.36" arrivalSpeed="14.45" duration="71.00" routeLength="1002.59" waitingTime="0.00" waitingCount="0" stopTime="0.00" timeLoss="1.00" rerouteNo="0" devices="tripinfo_WE.5 routing_WE.5" vType="car" speedFactor="0.92" vaporized=""/>
    <tripinfo id="NW.6" depart="83.00" departLane="E1_0" departPos="5.10" departSpeed="19.54" departDelay="0.00" arrival="150.00" arrivalLane="-E0_1" arrivalPos="500.03" arrivalSpeed="15.20" duration="67.00" routeLength="993.70" waitingTime="0.00" waitingCount="0" stopTime="0.00" timeLoss="7.84" rerouteNo="0" devices="tripinfo_NW.6 routing_NW.6" vType="car" speedFactor="0.97" vaporized=""/>
    <tripinfo id="NS.14" depart="72.00" departLane="E1_2" departPos="5.10" departSpeed="19.37" departDelay="0.00" arrival="154.00" arrivalLane="E3_0" arrivalPos="501.31" arrivalSpeed="19.32" duration="82.00" routeLength="994.98" waitingTime="17.00" waitingCount="1" stopTime="0.00" timeLoss="29.97" rerouteNo="0" devices="tripinfo_NS.14 routing_NS.14" vType="car" speedFactor="0.96" vaporized=""/>
    <tripinfo id="NE.2" depart="52.00" departLane="E1_3" departPos="5.10" departSpeed="21.38" departDelay="0.00" arrival="155.00" arrivalLane="E2_0" arrivalPos="508.36" arrivalSpeed="16.62" duration="103.00" routeLength="1002.03" waitingTime="37.00" waitingCount="1" stopTime="0.00" timeLoss="49.31" rerouteNo="0" devices="tripinfo_NE.2 routing_NE.2" vType="car" speedFactor="1.06" vaporized=""/>
    <tripinfo id="SN.8" depart="68.00" departLane="-E3_1" departPos="5.10" departSpeed="23.76" departDelay="0.00" arrival="157.00" arrivalLane="-E1_0" arrivalPos="498.92" arrivalSpeed="23.76" duration="89.00" routeLength="995.07" waitingTime="33.00" waitingCount="1" stopTime="0.00" timeLoss="46.80" rerouteNo="0" devices="tripinfo_SN.8 routing_SN.8" vType="car" speedFactor="1.18" vaporized=""/>
    <tripinfo id="NS.15" depart="89.00" departLane="E1_2" departPos="5.10" departSpeed="18.03" departDelay="0.00" arrival="157.00" arrivalLane="E3_1" arrivalPos="501.31" arrivalSpeed="18.02" duration="68.00" routeLength="994.98" waitingTime="0.00" waitingCount="0" stopTime="0.00" timeLoss="11.96" rerouteNo="0" devices="tripinfo_NS.15 routing_NS.15" vType="car" speedFactor="0.90" vaporized=""/>
    <tripinfo id="SN.9" depart="81.00" departLane="-E3_1" departPos="5.10" departSpeed="21.41" departDelay="0.00" arrival="159.00" arrivalLane="-E1_0" arrivalPos="498.92" arrivalSpeed="21.10" duration="78.00" routeLength="995.07" waitingTime="17.00" waitingCount="1" stopTime="0.00" timeLoss="31.43" rerouteNo="0" devices="tripinfo_SN.9 routing_SN.9" vType="car" speedFactor="1.06" vaporized=""/>
    <tripinfo id="NS.17" depart="105.00" departLane="E1_2" departPos="5.10" departSpeed="19.31" departDelay="0.00" arrival="159.00" arrivalLane="E3_1" arrivalPos="501.31" arrivalSpeed="18.72" duration="54.00" routeLength="994.98" waitingTime="0.00" waitingCount="0" stopTime="0.00" timeLoss="1.84" rerouteNo="0" devices="tripinfo_NS.17 routing_NS.17" vType="car" speedFactor="0.96" vaporized=""/>
    <tripinfo id="NS.16" depart="104.00" departLane="E1_1" departPos="5.10" departSpeed="18.34" departDelay="0.00" arrival="160.00" arrivalLane="E3_0" arrivalPos="501.31" arrivalSpeed="18.12" duration="56.00" routeLength="994.98" waitingTime="0.00" waitingCount="0" stopTime="0.00" timeLoss="1.67" rerouteNo="0" devices="tripinfo_NS.16 routing_NS.16" vType="car" speedFactor="0.91" vaporized=""/>
    <tripinfo id="NS.18" depart="107.00" departLane="E1_1" departPos="5.10" departSpeed="20.76" departDelay="0.00" arrival="161.00" arrivalLane="E3_1" arrivalPos="501.31" arrivalSpeed="19.73" duration="54.00" routeLength="994.98" waitingTime="0.00" waitingCount="0" stopTime="0.00" timeLoss="5.48" rerouteNo="0" devices="tripinfo_NS.18 routing_NS.18" vType="car" speedFactor="1.03" vaporized=""/>
    <tripinfo id="SN.10" depart="84.00" departLane="-E3_2" departPos="5.10" departSpeed="20.37" departDelay="0.00" arrival="162.00" arrivalLane="-E1_0" arrivalPos="498.92" arrivalSpeed="20.37" duration="78.00" routeLength="995.07" waitingTime="16.00" waitingCount="1" stopTime="0.00" timeLoss="28.98" rerouteNo="0" devices="tripinfo_SN.10 routing_SN.10" vType="car" speedFactor="1.01" vaporized=""/>
    <tripinfo id="NS.19" depart="109.00" departLane="E1_1" departPos="5.10" departSpeed="21.72" departDelay="0.00" arrival="163.00" arrivalLane="E3_1" arrivalPos="501.31" arrivalSpeed="20.37" duration="54.00" routeLength="994.98" waitingTime="0.00" waitingCount="0" stopTime="0.00" timeLoss="7.47" rerouteNo="0" devices="tripinfo_NS.19 routing_NS.19" vType="car" speedFactor="1.08" vaporized=""/>
    <tripinfo id="NS.20" depart="115.00" departLane="E1_1" departPos="5.10" departSpeed="22.71" departDelay="0.00" arrival="165.00" arrivalLane="E3_1" arrivalPos="501.31" arrivalSpeed="21.00" duration="50.00" routeLength="994.98" waitingTime="0.00" waitingCount="0" stopTime="0.00" timeLoss="5.28" rerouteNo="0" devices="tripinfo_NS.20 routing_NS.20" vType="car" speedFactor="1.13" vaporized=""/>
    <tripinfo id="SN.11" depart="97.00" departLane="-E3_1" departPos="5.10" departSpeed="15.99" departDelay="0.00" arrival="168.00" arrivalLane="-E1_0" arrivalPos="498.92" arrivalSpeed="15.99" duration="71.00" routeLength="995.07" waitingTime="0.00" waitingCount="0" stopTime="0.00" timeLoss="8.19" rerouteNo="0" devices="tripinfo_SN.11 routing_SN.11" vType="car" speedFactor="0.79" vaporized=""/>
    <tripinfo id="NW.8" depart="106.00" departLane="E1_0" departPos="5.10" departSpeed="21.16" departDelay="0.00" arrival="169.00" arrivalLane="-E0_1" arrivalPos="500.03" arrivalSpeed="16.46" duration="63.00" routeLength="993.70" waitingTime="0.00" waitingCount="0" stopTime="0.00" timeLoss="8.86" rerouteNo="0" devices="tripinfo_NW.8 routing_NW.8" vType="car" speedFactor="1.05" vaporized=""/>