<?xml version="1.0" encoding="UTF-8"?>

<!-- generated on 2023-01-30 20:12:01 by Eclipse SUMO sumo Version 1.13.0
<configuration xmlns:xsi="http://www.w3.org/2001/XMLSchema-instance" xsi:noNamespaceSchemaLocation="http://sumo.dlr.de/xsd/sumoConfiguration.xsd">

    <input>
        <net-file value="data/Eastway-Central.net.xml"/>
        <route-files value="data/Eastway-Central-offpeak.rou.xml"/>
        <additional-files value="data/Eastway-Central.add.xml"/>
    </input>

    <output>
        <tripinfo-output value="result\2023-01-30-20-07-31\26_tripinfo.xml"/>
    </output>

    <report>
        <no-warnings value="true"/>
        <no-step-log value="true"/>
    </report>

    <traci_server>
        <remote-port value="51533"/>
    </traci_server>

    <random_number>
        <seed value="25"/>
    </random_number>

</configuration>
-->

<tripinfos xmlns:xsi="http://www.w3.org/2001/XMLSchema-instance" xsi:noNamespaceSchemaLocation="http://sumo.dlr.de/xsd/tripinfo_file.xsd">
    <tripinfo id="BNS.0" depart="0.00" departLane="E1_1" departPos="12.10" departSpeed="20.12" departDelay="0.00" arrival="50.00" arrivalLane="E3_0" arrivalPos="501.31" arrivalSpeed="20.12" duration="50.00" routeLength="987.98" waitingTime="0.00" waitingCount="0" stopTime="0.00" timeLoss="0.19" rerouteNo="0" devices="tripinfo_BNS.0 routing_BNS.0" vType="bus" speedFactor="1.00" vaporized=""/>
    <tripinfo id="NS.0" depart="5.00" departLane="E1_2" departPos="5.10" departSpeed="19.54" departDelay="0.00" arrival="57.00" arrivalLane="E3_0" arrivalPos="501.31" arrivalSpeed="19.54" duration="52.00" routeLength="994.98" waitingTime="0.00" waitingCount="0" stopTime="0.00" timeLoss="0.28" rerouteNo="0" devices="tripinfo_NS.0 routing_NS.0" vType="car" speedFactor="0.97" vaporized=""/>
    <tripinfo id="NW.1" depart="28.00" departLane="E1_0" departPos="5.10" departSpeed="20.17" departDelay="0.00" arrival="58.00" arrivalLane="-E0_0" arrivalPos="500.03" arrivalSpeed="5.01" duration="30.00" routeLength="993.70" waitingTime="0.00" waitingCount="0" stopTime="0.00" timeLoss="5.34" rerouteNo="0" devices="tripinfo_NW.1 routing_NW.1" vType="car" speedFactor="1.00" vaporized="teleport"/>
    <tripinfo id="WN.0" depart="1.00" departLane="E0_2" departPos="5.10" departSpeed="16.81" departDelay="0.00" arrival="65.00" arrivalLane="-E1_0" arrivalPos="498.92" arrivalSpeed="21.62" duration="64.00" routeLength="993.15" waitingTime="0.00" waitingCount="0" stopTime="0.00" timeLoss="10.74" rerouteNo="0" devices="tripinfo_WN.0 routing_WN.0" vType="car" speedFactor="1.07" vaporized=""/>
    <tripinfo id="WS.0" depart="9.00" departLane="E0_0" departPos="5.10" departSpeed="14.92" departDelay="0.00" arrival="74.00" arrivalLane="E3_0" arrivalPos="501.31" arrivalSpeed="19.18" duration="65.00" routeLength="995.54" waitingTime="0.00" waitingCount="0" stopTime="0.00" timeLoss="5.75" rerouteNo="0" devices="tripinfo_WS.0 routing_WS.0" vType="car" speedFactor="0.95" vaporized=""/>
    <tripinfo id="EW.0" depart="4.00" departLane="-E2_0" departPos="5.10" departSpeed="18.68" departDelay="0.00" arrival="78.00" arrivalLane="-E0_1" arrivalPos="500.03" arrivalSpeed="18.68" duration="74.00" routeLength="1001.60" waitingTime="8.00" waitingCount="1" stopTime="0.00" timeLoss="19.74" rerouteNo="0" devices="tripinfo_EW.0 routing_EW.0" vType="car" speedFactor="1.19" vaporized=""/>
    <tripinfo id="NW.0" depart="14.00" departLane="E1_0" departPos="5.10" departSpeed="19.63" departDelay="0.00" arrival="78.00" arrivalLane="-E0_0" arrivalPos="500.03" arrivalSpeed="15.27" duration="64.00" routeLength="993.70" waitingTime="0.00" waitingCount="0" stopTime="0.00" timeLoss="5.89" rerouteNo="0" devices="tripinfo_NW.0 routing_NW.0" vType="car" speedFactor="0.98" vaporized=""/>
    <tripinfo id="WE.0" depart="20.00" departLane="E0_1" departPos="5.10" departSpeed="17.37" departDelay="0.00" arrival="78.00" arrivalLane="E2_0" arrivalPos="508.36" arrivalSpeed="17.37" duration="58.00" routeLength="1002.59" waitingTime="0.00" waitingCount="0" stopTime="0.00" timeLoss="0.17" rerouteNo="0" devices="tripinfo_WE.0 routing_WE.0" vType="car" speedFactor="1.11" vaporized=""/>
    <tripinfo id="EW.1" depart="15.00" departLane="-E2_1" departPos="5.10" departSpeed="16.30" departDelay="0.00" arrival="81.00" arrivalLane="-E0_0" arrivalPos="500.03" arrivalSpeed="16.18" duration="66.00" routeLength="1001.60" waitingTime="0.00" waitingCount="0" stopTime="0.00" timeLoss="4.30" rerouteNo="0" devices="tripinfo_EW.1 routing_EW.1" vType="car" speedFactor="1.04" vaporized=""/>
    <tripinfo id="WS.1" depart="17.00" departLane="E0_0" departPos="5.10" departSpeed="15.45" departDelay="0.00" arrival="81.00" arrivalLane="E3_0" arrivalPos="501.31" arrivalSpeed="19.86" duration="64.00" routeLength="995.54" waitingTime="0.00" waitingCount="0" stopTime="0.00" timeLoss="6.14" rerouteNo="0" devices="tripinfo_WS.1 routing_WS.1" vType="car" speedFactor="0.99" vaporized=""/>
    <tripinfo id="EW.2" depart="16.00" departLane="-E2_0" departPos="5.10" departSpeed="14.61" departDelay="0.00" arrival="87.00" arrivalLane="-E0_0" arrivalPos="500.03" arrivalSpeed="14.61" duration="71.00" routeLength="1001.60" waitingTime="0.00" waitingCount="0" stopTime="0.00" timeLoss="1.73" rerouteNo="0" devices="tripinfo_EW.2 routing_EW.2" vType="car" speedFactor="0.93" vaporized=""/>
    <tripinfo id="SE.0" depart="19.00" departLane="-E3_0" departPos="5.10" departSpeed="17.87" departDelay="0.00" arrival="89.00" arrivalLane="E2_0" arrivalPos="508.36" arrivalSpeed="13.90" duration="70.00" routeLength="1004.51" waitingTime="0.00" waitingCount="0" stopTime="0.00" timeLoss="4.92" rerouteNo="0" devices="tripinfo_SE.0 routing_SE.0" vType="car" speedFactor="0.89" vaporized=""/>
    <tripinfo id="SN.0" depart="10.00" departLane="-E3_1" departPos="5.10" departSpeed="19.55" departDelay="0.00" arrival="95.00" arrivalLane="-E1_0" arrivalPos="498.92" arrivalSpeed="19.55" duration="85.00" routeLength="995.07" waitingTime="22.00" waitingCount="1" stopTime="0.00" timeLoss="33.40" rerouteNo="0" devices="tripinfo_SN.0 routing_SN.0" vType="car" speedFactor="0.97" vaporized=""/>
    <tripinfo id="SN.1" depart="11.00" departLane="-E3_2" departPos="5.10" departSpeed="19.04" departDelay="0.00" arrival="95.00" arrivalLane="-E1_1" arrivalPos="498.92" arrivalSpeed="19.04" duration="84.00" routeLength="995.07" waitingTime="19.00" waitingCount="1" stopTime="0.00" timeLoss="31.61" rerouteNo="0" devices="tripinfo_SN.1 routing_SN.1" vType="car" speedFactor="0.95" vaporized=""/>
    <tripinfo id="EW.3" depart="20.00" departLane="-E2_1" departPos="5.10" departSpeed="13.44" departDelay="0.00" arrival="96.00" arrivalLane="-E0_0" arrivalPos="500.03" arrivalSpeed="13.44" duration="76.00" routeLength="1001.60" waitingTime="0.00" waitingCount="0" stopTime="0.00" timeLoss="0.53" rerouteNo="0" devices="tripinfo_EW.3 routing_EW.3" vType="car" speedFactor="0.86" vaporized=""/>
    <tripinfo id="SW.0" depart="11.00" departLane="-E3_3" departPos="5.10" departSpeed="23.16" departDelay="0.00" arrival="97.00" arrivalLane="-E0_1" arrivalPos="500.03" arrivalSpeed="18.02" duration="86.00" routeLength="996.18" waitingTime="24.00" waitingCount="1" stopTime="0.00" timeLoss="36.02" rerouteNo="0" devices="tripinfo_SW.0 routing_SW.0" vType="car" speedFactor="1.15" vaporized=""/>
    <tripinfo id="SN.2" depart="25.00" departLane="-E3_2" departPos="5.10" departSpeed="21.52" departDelay="0.00" arrival="97.00" arrivalLane="-E1_1" arrivalPos="498.92" arrivalSpeed="20.54" duration="72.00" routeLength="995.07" waitingTime="10.00" waitingCount="1" stopTime="0.00" timeLoss="25.64" rerouteNo="0" devices="tripinfo_SN.2 routing_SN.2" vType="car" speedFactor="1.07" vaporized=""/>
    <tripinfo id="SN.3" depart="30.00" departLane="-E3_1" departPos="5.10" departSpeed="21.28" departDelay="0.00" arrival="99.00" arrivalLane="-E1_0" arrivalPos="498.92" arrivalSpeed="20.75" duration="69.00" routeLength="995.07" waitingTime="6.00" waitingCount="1" stopTime="0.00" timeLoss="22.12" rerouteNo="0" devices="tripinfo_SN.3 routing_SN.3" vType="car" speedFactor="1.06" vaporized=""/>
    <tripinfo id="SN.6" depart="54.00" departLane="-E3_1" departPos="5.10" departSpeed="22.96" departDelay="0.00" arrival="101.00" arrivalLane="-E1_1" arrivalPos="498.92" arrivalSpeed="22.75" duration="47.00" routeLength="995.07" waitingTime="0.00" waitingCount="0" stopTime="0.00" timeLoss="2.68" rerouteNo="0" devices="tripinfo_SN.6 routing_SN.6" vType="car" speedFactor="1.14" vaporized=""/>
    <tripinfo id="SE.1" depart="32.00" departLane="-E3_0" departPos="5.10" departSpeed="19.27" departDelay="0.00" arrival="102.00" arrivalLane="E2_0" arrivalPos="508.36" arrivalSpeed="14.99" duration="70.00" routeLength="1004.51" waitingTime="0.00" waitingCount="0" stopTime="0.00" timeLoss="10.00" rerouteNo="0" devices="tripinfo_SE.1 routing_SE.1" vType="car" speedFactor="0.96" vaporized=""/>
    <tripinfo id="SN.5" depart="46.00" departLane="-E3_2" departPos="5.10" departSpeed="18.16" departDelay="0.00" arrival="103.00" arrivalLane="-E1_0" arrivalPos="498.92" arrivalSpeed="18.14" duration="57.00" routeLength="995.07" waitingTime="0.00" waitingCount="0" stopTime="0.00" timeLoss="2.07" rerouteNo="0" devices="tripinfo_SN.5 routing_SN.5" vType="car" speedFactor="0.90" vaporized=""/>
    <tripinfo id="NS.2" depart="20.00" departLane="E1_2" departPos="5.10" departSpeed="20.67" departDelay="0.00" arrival="104.00" arrivalLane="E3_0" arrivalPos="501.31" arrivalSpeed="20.67" duration="84.00" routeLength="994.98" waitingTime="23.00" waitingCount="1" stopTime="0.00" timeLoss="35.14" rerouteNo="0" devices="tripinfo_NS.2 routing_NS.2" vType="car" speedFactor="1.03" vaporized=""/>
    <tripinfo id="NW.2" depart="39.00" departLane="E1_0" departPos="5.10" departSpeed="19.54" departDelay="0.00" arrival="104.00" arrivalLane="-E0_0" arrivalPos="500.03" arrivalSpeed="15.20" duration="65.00" routeLength="993.70" waitingTime="0.00" waitingCount="0" stopTime="0.00" timeLoss="5.81" rerouteNo="0" devices="tripinfo_NW.2 routing_NW.2" vType="car" speedFactor="0.97" vaporized=""/>
    <tripinfo id="NS.3" depart="23.00" departLane="E1_1" departPos="5.10" departSpeed="19.63" departDelay="0.00" arrival="107.00" arrivalLane="E3_0" arrivalPos="501.31" arrivalSpeed="19.55" duration="84.00" routeLength="994.98" waitingTime="20.00" waitingCount="1" stopTime="0.00" timeLoss="33.17" rerouteNo="0" devices="tripinfo_NS.3 routing_NS.3" vType="car" speedFactor="0.98" vaporized=""/>
    <tripinfo id="NS.6" depart="34.00" departLane="E1_2" departPos="5.10" departSpeed="23.66" departDelay="0.00" arrival="107.00" arrivalLane="E3_1" arrivalPos="501.31" arrivalSpeed="23.64" duration="73.00" routeLength="994.98" waitingTime="13.00" waitingCount="1" stopTime="0.00" timeLoss="30.51" rerouteNo="0" devices="tripinfo_NS.6 routing_NS.6" vType="car" speedFactor="1.18" vaporized=""/>
    <tripinfo id="NW.4" depart="42.00" departLane="E1_0" departPos="5.10" departSpeed="18.63" departDelay="0.00" arrival="107.00" arrivalLane="-E0_0" arrivalPos="500.03" arrivalSpeed="17.96" duration="65.00" routeLength="993.70" waitingTime="0.00" waitingCount="0" stopTime="0.00" timeLoss="15.36" rerouteNo="0" devices="tripinfo_NW.4 routing_NW.4" vType="car" speedFactor="1.16" vaporized=""/>
    <tripinfo id="SN.7" depart="57.00" departLane="-E3_1" departPos="5.10" departSpeed="20.37" departDelay="0.00" arrival="107.00" arrivalLane="-E1_1" arrivalPos="498.92" arrivalSpeed="20.36" duration="50.00" routeLength="995.07" waitingTime="0.00" waitingCount="0" stopTime="0.00" timeLoss="0.82" rerouteNo="0" devices="tripinfo_SN.7 routing_SN.7" vType="car" speedFactor="1.01" vaporized=""/>
    <tripinfo id="SE.2" depart="37.00" departLane="-E3_0" departPos="5.10" departSpeed="18.01" departDelay="0.00" arrival="108.00" arrivalLane="E2_0" arrivalPos="508.36" arrivalSpeed="14.01" duration="71.00" routeLength="1004.51" waitingTime="0.00" waitingCount="0" stopTime="0.00" timeLoss="6.54" rerouteNo="0" devices="tripinfo_SE.2 routing_SE.2" vType="car" speedFactor="0.90" vaporized=""/>
    <tripinfo id="NW.3" depart="40.00" departLane="E1_0" departPos="5.10" departSpeed="16.59" departDelay="0.00" arrival="108.00" arrivalLane="-E0_0" arrivalPos="500.03" arrivalSpeed="14.49" duration="68.00" routeLength="993.70" waitingTime="0.00" waitingCount="0" stopTime="0.00" timeLoss="8.70" rerouteNo="0" devices="tripinfo_NW.3 routing_NW.3" vType="car" speedFactor="0.95" vaporized=""/>
    <tripinfo id="NS.7" depart="40.00" departLane="E1_1" departPos="5.10" departSpeed="20.75" departDelay="0.00" arrival="111.00" arrivalLane="E3_1" arrivalPos="501.31" arrivalSpeed="20.72" duration="71.00" routeLength="994.98" waitingTime="7.00" waitingCount="1" stopTime="0.00" timeLoss="22.39" rerouteNo="0" devices="tripinfo_NS.7 routing_NS.7" vType="car" speedFactor="1.03" vaporized=""/>
    <tripinfo id="SN.8" depart="59.00" departLane="-E3_2" departPos="5.10" departSpeed="19.72" departDelay="0.00" arrival="111.00" arrivalLane="-E1_1" arrivalPos="498.92" arrivalSpeed="19.68" duration="52.00" routeLength="995.07" waitingTime="0.00" waitingCount="0" stopTime="0.00" timeLoss="1.48" rerouteNo="0" devices="tripinfo_SN.8 routing_SN.8" vType="car" speedFactor="0.98" vaporized=""/>
    <tripinfo id="NS.1" depart="18.00" departLane="E1_1" departPos="5.10" departSpeed="15.14" departDelay="0.00" arrival="112.00" arrivalLane="E3_0" arrivalPos="501.31" arrivalSpeed="15.14" duration="94.00" routeLength="994.98" waitingTime="17.00" waitingCount="1" stopTime="0.00" timeLoss="27.67" rerouteNo="0" devices="tripinfo_NS.1 routing_NS.1" vType="car" speedFactor="0.75" vaporized=""/>
    <tripinfo id="NW.5" depart="47.00" departLane="E1_0" departPos="5.10" departSpeed="21.17" departDelay="0.00" arrival="112.00" arrivalLane="-E0_0" arrivalPos="500.03" arrivalSpeed="16.41" duration="65.00" routeLength="993.70" waitingTime="0.00" waitingCount="0" stopTime="0.00" timeLoss="10.57" rerouteNo="0" devices="tripinfo_NW.5 routing_NW.5" vType="car" speedFactor="1.05" vaporized=""/>
    <tripinfo id="NS.4" depart="26.00" departLane="E1_1" departPos="5.10" departSpeed="19.90" departDelay="0.00" arrival="113.00" arrivalLane="E3_1" arrivalPos="501.31" arrivalSpeed="19.25" duration="87.00" routeLength="994.98" waitingTime="13.00" waitingCount="1" stopTime="0.00" timeLoss="36.18" rerouteNo="0" devices="tripinfo_NS.4 routing_NS.4" vType="car" speedFactor="0.99" vaporized=""/>
    <tripinfo id="SN.9" depart="62.00" departLane="-E3_1" departPos="5.10" departSpeed="20.16" departDelay="0.00" arrival="114.00" arrivalLane="-E1_0" arrivalPos="498.92" arrivalSpeed="20.03" duration="52.00" routeLength="995.07" waitingTime="0.00" waitingCount="0" stopTime="0.00" timeLoss="2.18" rerouteNo="0" devices="tripinfo_SN.9 routing_SN.9" vType="car" speedFactor="1.00" vaporized=""/>
    <tripinfo id="NS.8" depart="55.00" departLane="E1_1" departPos="5.10" departSpeed="18.49" departDelay="0.00" arrival="115.00" arrivalLane="E3_1" arrivalPos="501.31" arrivalSpeed="18.21" duration="60.00" routeLength="994.98" waitingTime="0.00" waitingCount="0" stopTime="0.00" timeLoss="6.12" rerouteNo="0" devices="tripinfo_NS.8 routing_NS.8" vType="car" speedFactor="0.92" vaporized=""/>
    <tripinfo id="SN.10" depart="65.00" departLane="-E3_2" departPos="5.10" departSpeed="22.50" departDelay="0.00" arrival="116.00" arrivalLane="-E1_1" arrivalPos="498.92" arrivalSpeed="22.28" duration="51.00" routeLength="995.07" waitingTime="0.00" waitingCount="0" stopTime="0.00" timeLoss="5.87" rerouteNo="0" devices="tripinfo_SN.10 routing_SN.10" vType="car" speedFactor="1.12" vaporized=""/>
    <tripinfo id="NS.5" depart="29.00" departLane="E1_1" departPos="5.10" departSpeed="15.39" departDelay="0.00" arrival="117.00" arrivalLane="E3_0" arrivalPos="501.31" arrivalSpeed="15.38" duration="88.00" routeLength="994.98" waitingTime="9.00" waitingCount="1" stopTime="0.00" timeLoss="22.42" rerouteNo="0" devices="tripinfo_NS.5 routing_NS.5" vType="car" speedFactor="0.76" vaporized=""/>
    <tripinfo id="SN.4" depart="44.00" departLane="-E3_1" departPos="5.10" departSpeed="13.85" departDelay="0.00" arrival="117.00" arrivalLane="-E1_0" arrivalPos="498.92" arrivalSpeed="13.84" duration="73.00" routeLength="995.07" waitingTime="0.00" waitingCount="0" stopTime="0.00" timeLoss="0.33" rerouteNo="0" devices="tripinfo_SN.4 routing_SN.4" vType="car" speedFactor="0.69" vaporized=""/>
    <tripinfo id="NS.10" depart="59.00" departLane="E1_1" departPos="5.10" departSpeed="21.69" departDelay="0.00" arrival="117.00" arrivalLane="E3_1" arrivalPos="501.31" arrivalSpeed="19.94" duration="58.00" routeLength="994.98" waitingTime="0.00" waitingCount="0" stopTime="0.00" timeLoss="11.76" rerouteNo="0" devices="tripinfo_NS.10 routing_NS.10" vType="car" speedFactor="1.08" vaporized=""/>
    <tripinfo id="NS.9" depart="58.00" departLane="E1_2" departPos="5.10" departSpeed="16.18" departDelay="0.00" arrival="121.00" arrivalLane="E3_0" arrivalPos="501.31" arrivalSpeed="16.16" duration="63.00" routeLength="994.98" waitingTime="0.00" waitingCount="0" stopTime="0.00" timeLoss="1.14" rerouteNo="0" devices="tripinfo_NS.9 routing_NS.9" vType="car" speedFactor="0.80" vaporized=""/>
    <tripinfo id="ES.0" depart="19.00" departLane="-E2_2" departPos="5.10" departSpeed="18.13" departDelay="0.00" arrival="124.00" arrivalLane="E3_0" arrivalPos="501.31" arrivalSpeed="22.48" duration="105.00" routeLength="1002.88" waitingTime="41.00" waitingCount="1" stopTime="0.00" timeLoss="55.08" rerouteNo="0" devices="tripinfo_ES.0 routing_ES.0" vType="car" speedFactor="1.16" vaporized=""/>
    <tripinfo id="ES.1" depart="51.00" departLane="-E2_3" departPos="5.10" departSpeed="15.87" departDelay="0.00" arrival="125.00" arrivalLane="E3_1" arrivalPos="501.31" arrivalSpeed="20.40" duration="74.00" routeLength="1002.88" waitingTime="5.00" waitingCount="1" stopTime="0.00" timeLoss="17.46" rerouteNo="0" devices="tripinfo_ES.1 routing_ES.1" vType="car" speedFactor="1.01" vaporized=""/>
    <tripinfo id="ES.2" depart="58.00" departLane="-E2_2" departPos="5.10" departSpeed="16.25" departDelay="0.00" arrival="127.00" arrivalLane="E3_0" arrivalPos="501.31" arrivalSpeed="20.71" duration="69.00" routeLength="1002.88" waitingTime="1.00" waitingCount="1" stopTime="0.00" timeLoss="14.02" rerouteNo="0" devices="tripinfo_ES.2 routing_ES.2" vType="car" speedFactor="1.04" vaporized=""/>
    <tripinfo id="EW.4" depart="30.00" departLane="-E2_1" departPos="5.10" departSpeed="15.73" departDelay="0.00" arrival="131.00" arrivalLane="-E0_0" arrivalPos="500.03" arrivalSpeed="15.73" duration="101.00" routeLength="1001.60" waitingTime="27.00" waitingCount="1" stopTime="0.00" timeLoss="37.07" rerouteNo="0" devices="tripinfo_EW.4 routing_EW.4" vType="car" speedFactor="1.00" vaporized=""/>
    <tripinfo id="EW.5" depart="77.00" departLane="-E2_0" departPos="5.10" departSpeed="18.29" departDelay="0.00" arrival="133.00" arrivalLane="-E0_1" arrivalPos="500.03" arrivalSpeed="18.29" duration="56.00" routeLength="1001.60" waitingTime="0.00" waitingCount="0" stopTime="0.00" timeLoss="1.06" rerouteNo="0" devices="tripinfo_EW.5 routing_EW.5" vType="car" speedFactor="1.17" vaporized=""/>
    <tripinfo id="WS.2" depart="71.00" departLane="E0_0" departPos="5.10" departSpeed="14.41" departDelay="0.00" arrival="140.00" arrivalLane="E3_0" arrivalPos="501.31" arrivalSpeed="18.53" duration="69.00" routeLength="995.54" waitingTime="0.00" waitingCount="0" stopTime="0.00" timeLoss="7.38" rerouteNo="0" devices="tripinfo_WS.2 routing_WS.2" vType="car" speedFactor="0.92" vaporized=""/>
    <tripinfo id="WE.1" depart="54.00" departLane="E0_0" departPos="5.10" departSpeed="16.10" departDelay="0.00" arrival="142.00" arrivalLane="E2_0" arrivalPos="508.36" arrivalSpeed="16.10" duration="88.00" routeLength="1002.59" waitingTime="15.00" waitingCount="1" stopTime="0.00" timeLoss="25.34" rerouteNo="0" devices="tripinfo_WE.1 routing_WE.1" vType="car" speedFactor="1.03" vaporized=""/>
    <tripinfo id="WS.3" depart="86.00" departLane="E0_0" departPos="5.10" departSpeed="16.64" departDelay="0.00" arrival="146.00" arrivalLane="E3_0" arrivalPos="501.31" arrivalSpeed="21.38" duration="60.00" routeLength="995.54" waitingTime="0.00" waitingCount="0" stopTime="0.00" timeLoss="6.81" rerouteNo="0" devices="tripinfo_WS.3 routing_WS.3" vType="car" speedFactor="1.06" vaporized=""/>
    <tripinfo id="EW.6" depart="83.00" departLane="-E2_1" departPos="5.10" departSpeed="15.89" departDelay="0.00" arrival="147.00" arrivalLane="-E0_0" arrivalPos="500.03" arrivalSpeed="15.89" duration="64.00" routeLength="1001.60" waitingTime="0.00" waitingCount="0" stopTime="0.00" timeLoss="0.15" rerouteNo="0" devices="tripinfo_EW.6 routing_EW.6" vType="car" speedFactor="1.02" vaporized=""/>
    <tripinfo id="SN.11" depart="76.00" departLane="-E3_1" departPos="5.10" departSpeed="24.19" departDelay="0.00" arrival="153.00" arrivalLane="-E1_0" arrivalPos="498.92" arrivalSpeed="24.19" duration="77.00" routeLength="995.07" waitingTime="22.00" waitingCount="1" stopTime="0.00" timeLoss="35.27" rerouteNo="0" devices="tripinfo_SN.11 routing_SN.11" vType="car" speedFactor="1.20" vaporized=""/>
    <tripinfo id="NW.7" depart="82.00" departLane="E1_0" departPos="5.10" departSpeed="16.74" departDelay="0.00" arrival="153.00" arrivalLane="-E0_0" arrivalPos="500.03" arrivalSpeed="15.33" duration="71.00" routeLength="993.70" waitingTime="0.00" waitingCount="0" stopTime="0.00" timeLoss="13.24" rerouteNo="0" devices="tripinfo_NW.7 routing_NW.7" vType="car" speedFactor="0.98" vaporized=""/>
    <tripinfo id="SE.3" depart="82.00" departLane="-E3_0" departPos="5.10" departSpeed="17.79" departDelay="0.00" arrival="153.00" arrivalLane="E2_0" arrivalPos="508.36" arrivalSpeed="13.84" duration="71.00" routeLength="1004.51" waitingTime="0.00" waitingCount="0" stopTime="0.00" timeLoss="6.10" rerouteNo="0" devices="tripinfo_SE.3 routing_SE.3" vType="car" speedFactor="0.88" vaporized=""/>
    <tripinfo id="SN.14" depart="82.00" departLane="-E3_2" departPos="5.10" departSpeed="21.47" departDelay="0.00" arrival="155.00" arrivalLane="-E1_1" arrivalPos="498.92" arrivalSpeed="21.47" duration="73.00" routeLength="995.07" waitingTime="13.00" waitingCount="1" stopTime="0.00" timeLoss="26.08" rerouteNo="0" devices="tripinfo_SN.14 routing_SN.14" vType="car" speedFactor="1.07" vaporized=""/>
    <tripinfo id="SN.13" depart="81.00" departLane="-E3_1" departPos="5.10" departSpeed="21.14" departDelay="0.00" arrival="158.00" arrivalLane="-E1_1" arrivalPos="498.92" arrivalSpeed="21.01" duration="77.00" routeLength="995.07" waitingTime="13.00" waitingCount="1" stopTime="0.00" timeLoss="29.59" rerouteNo="0" devices="tripinfo_SN.13 routing_SN.13" vType="car" speedFactor="1.05" vaporized=""/>
    <tripinfo id="SW.1" depart="66.00" departLane="-E3_3" departPos="5.10" departSpeed="23.09" departDelay="0.00" arrival="159.00" arrivalLane="-E0_1" arrivalPos="500.03" arrivalSpeed="17.96" duration="93.00" routeLength="996.18" waitingTime="31.00" waitingCount="1" stopTime="0.00" timeLoss="43.13" rerouteNo="0" devices="tripinfo_SW.1 routing_SW.1" vType="car" speedFactor="1.15" vaporized=""/>
    <tripinfo id="NW.6" depart="80.00" departLane="E1_0" departPos="5.10" departSpeed="15.31" departDelay="0.00" arrival="159.00" arrivalLane="-E0_0" arrivalPos="500.03" arrivalSpeed="11.91" duration="79.00" routeLength="993.70" waitingTime="0.00" waitingCount="0" stopTime="0.00" timeLoss="4.44" rerouteNo="0" devices="tripinfo_NW.6 routing_NW.6" vType="car" speedFactor="0.76" vaporized=""/>
    <tripinfo id="SN.12" depart="77.00" departLane="-E3_2" departPos="5.10" departSpeed="17.12" departDelay="0.00" arrival="162.00" arrivalLane="-E1_0" arrivalPos="498.92" arrivalSpeed="17.12" duration="85.00" routeLength="995.07" waitingTime="15.00" waitingCount="1" stopTime="0.00" timeLoss="26.54" rerouteNo="0" devices="tripinfo_SN.12 routing_SN.12" vType="car" speedFactor="0.85" vaporized=""/>
    <tripinfo id="SW.2" depart="80.00" departLane="-E3_3" departPos="5.10" departSpeed="23.73" departDelay="0.00" arrival="162.00" arrivalLane="-E0_1" arrivalPos="500.03" arrivalSpeed="18.30" duration="82.00" routeLength="996.18" waitingTime="18.00" waitingCount="1" stopTime="0.00" timeLoss="33.26" rerouteNo="0" devices="tripinfo_SW.2 routing_SW.2" vType="car" speedFactor="1.18" vaporized=""/>
    <tripinfo id="SN.15" depart="90.00" departLane="-E3_1" departPos="5.10" departSpeed="19.00" departDelay="0.00" arrival="162.00" arrivalLane="-E1_1" arrivalPos="498.92" arrivalSpeed="18.97" duration="72.00" routeLength="995.07" waitingTime="5.00" waitingCount="1" stopTime="0.00" timeLoss="19.41" rerouteNo="0" devices="tripinfo_SN.15 routing_SN.15" vType="car" speedFactor="0.94" vaporized=""/>
    <tripinfo id="NS.11" depart="72.00" departLane="E1_2" departPos="5.10" departSpeed="23.54" departDelay="0.00" arrival="164.00" arrivalLane="E3_0" arrivalPos="501.31" arrivalSpeed="23.54" duration="92.00" routeLength="994.98" waitingTime="37.00" waitingCount="1" stopTime="0.00" timeLoss="49.66" rerouteNo="0" devices="tripinfo_NS.11 routing_NS.11" vType="car" speedFactor="1.17" vaporized=""/>
    <tripinfo id="NS.12" depart="85.00" departLane="E1_1" departPos="5.10" departSpeed="19.45" departDelay="0.00" arrival="168.00" arrivalLane="E3_0" arrivalPos="501.31" arrivalSpeed="19.44" duration="83.00" routeLength="994.98" waitingTime="19.00" waitingCount="1" stopTime="0.00" timeLoss="31.72" rerouteNo="0" devices="tripinfo_NS.12 routing_NS.12" vType="car" speedFactor="0.97" vaporized=""/>
    <tripinfo id="NS.14" depart="89.00" departLane="E1_1" departPos="5.10" departSpeed="22.67" departDelay="0.00" arrival="170.00" arrivalLane="E3_0" arrivalPos="501.31" arrivalSpeed="21.22" duration="81.00" routeLength="994.98" waitingTime="16.00" waitingCount="1" stopTime="0.00" timeLoss="36.78" rerouteNo="0" devices="tripinfo_NS.14 routing_NS.14" vType="car" speedFactor="1.13" vaporized=""/>
    <tripinfo id="BSN.0" depart="120.00" departLane="-E3_1" departPos="12.10" departSpeed="20.12" departDelay="0.00" arrival="170.00" arrivalLane="-E1_1" arrivalPos="498.92" arrivalSpeed="20.10" duration="50.00" routeLength="988.07" waitingTime="0.00" waitingCount="0" stopTime="0.00" timeLoss="0.67" rerouteNo="0" devices="tripinfo_BSN.0 routing_BSN.0" vType="bus" speedFactor="1.00" vaporized=""/>
    <tripinfo id="NS.13" depart="88.00" departLane="E1_2" departPos="5.10" departSpeed="18.59" departDelay="0.00" arrival="172.00" arrivalLane="E3_0" arrivalPos="501.31" arrivalSpeed="18.19" duration="84.00" routeLength="994.98" waitingTime="17.00" waitingCount="1" stopTime="0.00" timeLoss="29.61" rerouteNo="0" devices="tripinfo_NS.13 routing_NS.13" vType="car" speedFactor="0.92" vaporized=""/>
    <tripinfo id="NS.15" depart="91.00" departLane="E1_2" departPos="5.10" departSpeed="21.88" departDelay="0.00" arrival="173.00" arrivalLane="E3_1" arrivalPos="501.31" arrivalSpeed="21.34" duration="82.00" routeLength="994.98" waitingTime="17.00" waitingCount="1" stopTime="0.00" timeLoss="36.08" rerouteNo="0" devices="tripinfo_NS.15 routing_NS.15" vType="car" speedFactor="1.09" vaporized=""/>
    <tripinfo id="NS.16" depart="92.00" departLane="E1_1" departPos="5.10" departSpeed="17.93" departDelay="0.00" arrival="175.00" arrivalLane="E3_0" arrivalPos="501.31" arrivalSpeed="17.83" duration="83.00" routeLength="994.98" waitingTime="13.00" waitingCount="1" stopTime="0.00" timeLoss="26.77" rerouteNo="0" devices="tripinfo_NS.16 routing_NS.16" vType="car" speedFactor="0.89" vaporized=""/>
    <tripinfo id="NS.17" depart="104.00" departLane="E1_2" departPos="5.10" departSpeed="19.34" departDelay="0.00" arrival="176.00" arrivalLane="E3_1" arrivalPos="501.31" arrivalSpeed="19.21" duration="72.00" routeLength="994.98" waitingTime="4.00" waitingCount="1" stopTime="0.00" timeLoss="19.99" rerouteNo="0" devices="tripinfo_NS.17 routing_NS.17" vType="car" speedFactor="0.96" vaporized=""/>
    <tripinfo id="NS.18" depart="105.00" departLane="E1_1" departPos="5.10" departSpeed="21.76" departDelay="0.00" arrival="177.00" arrivalLane="E3_0" arrivalPos="501.31" arrivalSpeed="20.03" duration="72.00" routeLength="994.98" waitingTime="4.00" waitingCount="1" stopTime="0.00" timeLoss="25.38" rerouteNo="0" devices="tripinfo_NS.18 routing_NS.18" vType="car" speedFactor="1.08" vaporized=""/>
    <tripinfo id="NS.19" depart="108.00" departLane="E1_2" departPos="5.10" departSpeed="21.61" departDelay="0.00" arrival="178.00" arrivalLane="E3_1" arrivalPos="501.31" arrivalSpeed="20.39" duration="70.00" routeLength="994.98" waitingTime="4.00" waitingCount="1" stopTime="0.00" timeLoss="23.31" rerouteNo="0" devices="tripinfo_NS.19 routing_NS.19" vType="car" speedFactor="1.07" vaporized=""/>
    <tripinfo id="NS.21" depart="121.00" departLane="E1_1" departPos="5.10" departSpeed="23.01" departDelay="0.00" arrival="178.00" arrivalLane="E3_0" arrivalPos="501.31" arrivalSpeed="19.69" duration="57.00" routeLength="994.98" waitingTime="0.00" waitingCount="0" stopTime="0.00" timeLoss="13.58" rerouteNo="0" devices="tripinfo_NS.21 routing_NS.21" vType="car" speedFactor="1.14" vaporized=""/>
    <tripinfo id="SN.17" depart="131.00" departLane="-E3_1" departPos="5.10" departSpeed="22.18" departDelay="0.00" arrival="178.00" arrivalLane="-E1_1" arrivalPos="498.92" arrivalSpeed="22.17" duration="47.00" routeLength="995.07" waitingTime="0.00" waitingCount="0" stopTime="0.00" timeLoss="1.92" rerouteNo="0" devices="tripinfo_SN.17 routing_SN.17" vType="car" speedFactor="1.10" vaporized=""/>
    <tripinfo id="SN.16" depart="129.00" departLane="-E3_1" departPos="5.10" departSpeed="20.00" departDelay="0.00" arrival="179.00" arrivalLane="-E1_0" arrivalPos="498.92" arrivalSpeed="20.00" duration="50.00" routeLength="995.07" waitingTime="0.00" waitingCount="0" stopTime="0.00" timeLoss="0.12" rerouteNo="0" devices="tripinfo_SN.16 routing_SN.16" vType="car" speedFactor="0.99" vaporized=""/>