<?xml version="1.0" encoding="UTF-8"?>

<!-- generated on 2023-01-30 11:47:43 by Eclipse SUMO sumo Version 1.13.0
<configuration xmlns:xsi="http://www.w3.org/2001/XMLSchema-instance" xsi:noNamespaceSchemaLocation="http://sumo.dlr.de/xsd/sumoConfiguration.xsd">

    <input>
        <net-file value="data/Eastway-Central.net.xml"/>
        <route-files value="data/cav40-offpeak.rou.xml"/>
        <additional-files value="data/Eastway-Central.add.xml"/>
    </input>

    <output>
        <tripinfo-output value="result\2023-01-30-11-43-39\25_tripinfo.xml"/>
    </output>

    <report>
        <no-warnings value="true"/>
        <no-step-log value="true"/>
    </report>

    <traci_server>
        <remote-port value="53245"/>
    </traci_server>

    <random_number>
        <seed value="24"/>
    </random_number>

</configuration>
-->

<tripinfos xmlns:xsi="http://www.w3.org/2001/XMLSchema-instance" xsi:noNamespaceSchemaLocation="http://sumo.dlr.de/xsd/tripinfo_file.xsd">
    <tripinfo id="NS.cv.0" depart="0.00" departLane="E1_1" departPos="5.10" departSpeed="20.36" departDelay="0.00" arrival="50.00" arrivalLane="E3_0" arrivalPos="501.31" arrivalSpeed="20.12" duration="50.00" routeLength="994.98" waitingTime="0.00" waitingCount="0" stopTime="0.00" timeLoss="0.76" rerouteNo="0" devices="tripinfo_NS.cv.0 routing_NS.cv.0" vType="cv" speedFactor="1.01" vaporized=""/>
    <tripinfo id="BNS.0" depart="0.00" departLane="E1_2" departPos="12.10" departSpeed="20.12" departDelay="0.00" arrival="50.00" arrivalLane="E3_1" arrivalPos="501.31" arrivalSpeed="20.12" duration="50.00" routeLength="987.98" waitingTime="0.00" waitingCount="0" stopTime="0.00" timeLoss="0.19" rerouteNo="0" devices="tripinfo_BNS.0 routing_BNS.0" vType="bus" speedFactor="1.00" vaporized=""/>
    <tripinfo id="NS.0" depart="9.00" departLane="E1_2" departPos="5.10" departSpeed="20.42" departDelay="0.00" arrival="58.00" arrivalLane="E3_0" arrivalPos="501.31" arrivalSpeed="20.42" duration="49.00" routeLength="994.98" waitingTime="0.00" waitingCount="0" stopTime="0.00" timeLoss="0.20" rerouteNo="0" devices="tripinfo_NS.0 routing_NS.0" vType="car" speedFactor="1.02" vaporized=""/>
    <tripinfo id="WS.0" depart="7.00" departLane="E0_0" departPos="5.10" departSpeed="16.73" departDelay="0.00" arrival="70.00" arrivalLane="E3_0" arrivalPos="501.31" arrivalSpeed="21.51" duration="63.00" routeLength="995.54" waitingTime="0.00" waitingCount="0" stopTime="0.00" timeLoss="9.48" rerouteNo="0" devices="tripinfo_WS.0 routing_WS.0" vType="car" speedFactor="1.07" vaporized=""/>
    <tripinfo id="EN.0" depart="4.00" departLane="-E2_0" departPos="5.10" departSpeed="12.12" departDelay="0.00" arrival="83.00" arrivalLane="-E1_0" arrivalPos="498.92" arrivalSpeed="15.58" duration="79.00" routeLength="1000.49" waitingTime="0.00" waitingCount="0" stopTime="0.00" timeLoss="4.88" rerouteNo="0" devices="tripinfo_EN.0 routing_EN.0" vType="car" speedFactor="0.77" vaporized=""/>
    <tripinfo id="WS.1" depart="17.00" departLane="E0_0" departPos="5.10" departSpeed="14.60" departDelay="0.00" arrival="84.00" arrivalLane="E3_0" arrivalPos="501.31" arrivalSpeed="18.77" duration="67.00" routeLength="995.54" waitingTime="0.00" waitingCount="0" stopTime="0.00" timeLoss="6.05" rerouteNo="0" devices="tripinfo_WS.1 routing_WS.1" vType="car" speedFactor="0.93" vaporized=""/>
    <tripinfo id="SE.cv.0" depart="20.00" departLane="-E3_0" departPos="5.10" departSpeed="15.10" departDelay="1.00" arrival="86.00" arrivalLane="E2_1" arrivalPos="508.36" arrivalSpeed="18.14" duration="66.00" routeLength="1004.51" waitingTime="0.00" waitingCount="0" stopTime="0.00" timeLoss="15.75" rerouteNo="0" devices="tripinfo_SE.cv.0 routing_SE.cv.0" vType="cv" speedFactor="1.16" vaporized=""/>
    <tripinfo id="WS.2" depart="23.00" departLane="E0_0" departPos="5.10" departSpeed="16.03" departDelay="0.00" arrival="87.00" arrivalLane="E3_1" arrivalPos="501.31" arrivalSpeed="20.60" duration="64.00" routeLength="995.54" waitingTime="0.00" waitingCount="0" stopTime="0.00" timeLoss="8.02" rerouteNo="0" devices="tripinfo_WS.2 routing_WS.2" vType="car" speedFactor="1.02" vaporized=""/>
    <tripinfo id="SE.0" depart="19.00" departLane="-E3_0" departPos="5.10" departSpeed="17.77" departDelay="0.00" arrival="90.00" arrivalLane="E2_0" arrivalPos="508.36" arrivalSpeed="13.82" duration="71.00" routeLength="1004.51" waitingTime="0.00" waitingCount="0" stopTime="0.00" timeLoss="6.02" rerouteNo="0" devices="tripinfo_SE.0 routing_SE.0" vType="car" speedFactor="0.88" vaporized=""/>
    <tripinfo id="SN.0" depart="24.00" departLane="-E3_1" departPos="5.10" departSpeed="24.25" departDelay="0.00" arrival="92.00" arrivalLane="-E1_0" arrivalPos="498.92" arrivalSpeed="24.25" duration="68.00" routeLength="995.07" waitingTime="13.00" waitingCount="1" stopTime="0.00" timeLoss="26.44" rerouteNo="0" devices="tripinfo_SN.0 routing_SN.0" vType="car" speedFactor="1.21" vaporized=""/>
    <tripinfo id="SN.1" depart="27.00" departLane="-E3_2" departPos="5.10" departSpeed="22.05" departDelay="0.00" arrival="94.00" arrivalLane="-E1_0" arrivalPos="498.92" arrivalSpeed="21.57" duration="67.00" routeLength="995.07" waitingTime="8.00" waitingCount="1" stopTime="0.00" timeLoss="21.11" rerouteNo="0" devices="tripinfo_SN.1 routing_SN.1" vType="car" speedFactor="1.10" vaporized=""/>
    <tripinfo id="SN.cv.0" depart="28.00" departLane="-E3_1" departPos="5.10" departSpeed="22.09" departDelay="0.00" arrival="96.00" arrivalLane="-E1_0" arrivalPos="498.92" arrivalSpeed="21.59" duration="68.00" routeLength="995.07" waitingTime="8.00" waitingCount="1" stopTime="0.00" timeLoss="22.72" rerouteNo="0" devices="tripinfo_SN.cv.0 routing_SN.cv.0" vType="cv" speedFactor="1.10" vaporized=""/>
    <tripinfo id="SN.2" depart="29.00" departLane="-E3_2" departPos="5.10" departSpeed="22.77" departDelay="0.00" arrival="96.00" arrivalLane="-E1_1" arrivalPos="498.92" arrivalSpeed="22.74" duration="67.00" routeLength="995.07" waitingTime="7.00" waitingCount="1" stopTime="0.00" timeLoss="22.64" rerouteNo="0" devices="tripinfo_SN.2 routing_SN.2" vType="car" speedFactor="1.13" vaporized=""/>
    <tripinfo id="NS.2" depart="24.00" departLane="E1_2" departPos="5.10" departSpeed="18.24" departDelay="0.00" arrival="97.00" arrivalLane="E3_0" arrivalPos="501.31" arrivalSpeed="18.24" duration="73.00" routeLength="994.98" waitingTime="7.00" waitingCount="1" stopTime="0.00" timeLoss="18.45" rerouteNo="0" devices="tripinfo_NS.2 routing_NS.2" vType="car" speedFactor="0.91" vaporized=""/>
    <tripinfo id="NS.cv.1" depart="26.00" departLane="E1_2" departPos="5.10" departSpeed="20.23" departDelay="0.00" arrival="98.00" arrivalLane="E3_1" arrivalPos="501.31" arrivalSpeed="20.23" duration="72.00" routeLength="994.98" waitingTime="7.00" waitingCount="1" stopTime="0.00" timeLoss="22.41" rerouteNo="0" devices="tripinfo_NS.cv.1 routing_NS.cv.1" vType="cv" speedFactor="1.01" vaporized=""/>
    <tripinfo id="SN.3" depart="45.00" departLane="-E3_1" departPos="5.10" departSpeed="20.11" departDelay="0.00" arrival="100.00" arrivalLane="-E1_1" arrivalPos="498.92" arrivalSpeed="20.08" duration="55.00" routeLength="995.07" waitingTime="0.00" waitingCount="0" stopTime="0.00" timeLoss="4.88" rerouteNo="0" devices="tripinfo_SN.3 routing_SN.3" vType="car" speedFactor="1.00" vaporized=""/>
    <tripinfo id="NS.4" depart="31.00" departLane="E1_1" departPos="5.10" departSpeed="20.49" departDelay="0.00" arrival="101.00" arrivalLane="E3_1" arrivalPos="501.31" arrivalSpeed="20.29" duration="70.00" routeLength="994.98" waitingTime="5.00" waitingCount="1" stopTime="0.00" timeLoss="20.74" rerouteNo="0" devices="tripinfo_NS.4 routing_NS.4" vType="car" speedFactor="1.02" vaporized=""/>
    <tripinfo id="NS.1" depart="18.00" departLane="E1_1" departPos="5.10" departSpeed="15.98" departDelay="0.00" arrival="102.00" arrivalLane="E3_0" arrivalPos="501.31" arrivalSpeed="15.97" duration="84.00" routeLength="994.98" waitingTime="10.00" waitingCount="1" stopTime="0.00" timeLoss="20.77" rerouteNo="0" devices="tripinfo_NS.1 routing_NS.1" vType="car" speedFactor="0.79" vaporized=""/>
    <tripinfo id="SN.4" depart="51.00" departLane="-E3_1" departPos="5.10" departSpeed="22.40" departDelay="0.00" arrival="102.00" arrivalLane="-E1_1" arrivalPos="498.92" arrivalSpeed="21.31" duration="51.00" routeLength="995.07" waitingTime="0.00" waitingCount="0" stopTime="0.00" timeLoss="5.94" rerouteNo="0" devices="tripinfo_SN.4 routing_SN.4" vType="car" speedFactor="1.11" vaporized=""/>
    <tripinfo id="NS.3" depart="26.00" departLane="E1_1" departPos="5.10" departSpeed="25.01" departDelay="0.00" arrival="103.00" arrivalLane="E3_0" arrivalPos="501.31" arrivalSpeed="18.03" duration="77.00" routeLength="994.98" waitingTime="7.00" waitingCount="1" stopTime="0.00" timeLoss="36.89" rerouteNo="0" devices="tripinfo_NS.3 routing_NS.3" vType="car" speedFactor="1.24" vaporized=""/>
    <tripinfo id="NS.6" depart="41.00" departLane="E1_2" departPos="5.10" departSpeed="23.35" departDelay="0.00" arrival="103.00" arrivalLane="E3_1" arrivalPos="501.31" arrivalSpeed="21.71" duration="62.00" routeLength="994.98" waitingTime="0.00" waitingCount="0" stopTime="0.00" timeLoss="18.52" rerouteNo="0" devices="tripinfo_NS.6 routing_NS.6" vType="car" speedFactor="1.16" vaporized=""/>
    <tripinfo id="NS.5" depart="35.00" departLane="E1_1" departPos="5.10" departSpeed="20.45" departDelay="0.00" arrival="105.00" arrivalLane="E3_0" arrivalPos="501.31" arrivalSpeed="18.49" duration="70.00" routeLength="994.98" waitingTime="0.00" waitingCount="0" stopTime="0.00" timeLoss="20.68" rerouteNo="0" devices="tripinfo_NS.5 routing_NS.5" vType="car" speedFactor="1.02" vaporized=""/>
    <tripinfo id="NS.cv.2" depart="46.00" departLane="E1_1" departPos="5.10" departSpeed="21.97" departDelay="0.00" arrival="105.00" arrivalLane="E3_1" arrivalPos="501.31" arrivalSpeed="21.05" duration="59.00" routeLength="994.98" waitingTime="0.00" waitingCount="0" stopTime="0.00" timeLoss="12.85" rerouteNo="0" devices="tripinfo_NS.cv.2 routing_NS.cv.2" vType="cv" speedFactor="1.09" vaporized=""/>
    <tripinfo id="NS.cv.3" depart="49.00" departLane="E1_2" departPos="5.10" departSpeed="21.36" departDelay="0.00" arrival="107.00" arrivalLane="E3_0" arrivalPos="501.31" arrivalSpeed="19.40" duration="58.00" routeLength="994.98" waitingTime="0.00" waitingCount="0" stopTime="0.00" timeLoss="10.52" rerouteNo="0" devices="tripinfo_NS.cv.3 routing_NS.cv.3" vType="cv" speedFactor="1.06" vaporized=""/>
    <tripinfo id="ES.cv.1" depart="29.00" departLane="-E2_2" departPos="5.10" departSpeed="19.25" departDelay="0.00" arrival="110.00" arrivalLane="E3_1" arrivalPos="501.31" arrivalSpeed="24.67" duration="81.00" routeLength="1002.88" waitingTime="20.00" waitingCount="1" stopTime="0.00" timeLoss="34.12" rerouteNo="0" devices="tripinfo_ES.cv.1 routing_ES.cv.1" vType="cv" speedFactor="1.23" vaporized=""/>
    <tripinfo id="WN.0" depart="40.00" departLane="E0_2" departPos="5.10" departSpeed="15.75" departDelay="0.00" arrival="113.00" arrivalLane="-E1_0" arrivalPos="498.92" arrivalSpeed="20.24" duration="73.00" routeLength="993.15" waitingTime="5.00" waitingCount="1" stopTime="0.00" timeLoss="16.57" rerouteNo="0" devices="tripinfo_WN.0 routing_WN.0" vType="car" speedFactor="1.01" vaporized=""/>
    <tripinfo id="ES.cv.2" depart="35.00" departLane="-E2_2" departPos="5.10" departSpeed="15.26" departDelay="0.00" arrival="116.00" arrivalLane="E3_1" arrivalPos="501.31" arrivalSpeed="19.61" duration="81.00" routeLength="1002.88" waitingTime="9.00" waitingCount="1" stopTime="0.00" timeLoss="22.28" rerouteNo="0" devices="tripinfo_ES.cv.2 routing_ES.cv.2" vType="cv" speedFactor="0.97" vaporized=""/>
    <tripinfo id="ES.cv.0" depart="16.00" departLane="-E2_2" departPos="5.10" departSpeed="13.26" departDelay="0.00" arrival="117.00" arrivalLane="E3_0" arrivalPos="501.31" arrivalSpeed="17.05" duration="101.00" routeLength="1002.88" waitingTime="23.00" waitingCount="1" stopTime="0.00" timeLoss="33.56" rerouteNo="0" devices="tripinfo_ES.cv.0 routing_ES.cv.0" vType="cv" speedFactor="0.85" vaporized=""/>
    <tripinfo id="ES.0" depart="33.00" departLane="-E2_3" departPos="5.10" departSpeed="15.86" departDelay="0.00" arrival="118.00" arrivalLane="E3_1" arrivalPos="501.31" arrivalSpeed="19.79" duration="85.00" routeLength="1002.88" waitingTime="13.00" waitingCount="1" stopTime="0.00" timeLoss="28.67" rerouteNo="0" devices="tripinfo_ES.0 routing_ES.0" vType="car" speedFactor="1.01" vaporized=""/>
    <tripinfo id="NW.cv.0" depart="60.00" departLane="E1_0" departPos="5.10" departSpeed="21.60" departDelay="0.00" arrival="121.00" arrivalLane="-E0_0" arrivalPos="500.03" arrivalSpeed="16.80" duration="61.00" routeLength="993.70" waitingTime="0.00" waitingCount="0" stopTime="0.00" timeLoss="7.56" rerouteNo="0" devices="tripinfo_NW.cv.0 routing_NW.cv.0" vType="cv" speedFactor="1.07" vaporized=""/>
    <tripinfo id="WE.0" depart="40.00" departLane="E0_1" departPos="5.10" departSpeed="17.44" departDelay="0.00" arrival="128.00" arrivalLane="E2_1" arrivalPos="508.36" arrivalSpeed="17.44" duration="88.00" routeLength="1002.59" waitingTime="19.00" waitingCount="1" stopTime="0.00" timeLoss="29.99" rerouteNo="0" devices="tripinfo_WE.0 routing_WE.0" vType="car" speedFactor="1.11" vaporized=""/>
    <tripinfo id="EW.cv.1" depart="72.00" departLane="-E2_1" departPos="5.10" departSpeed="18.65" departDelay="0.00" arrival="128.00" arrivalLane="-E0_1" arrivalPos="500.03" arrivalSpeed="18.65" duration="56.00" routeLength="1001.60" waitingTime="0.00" waitingCount="0" stopTime="0.00" timeLoss="1.95" rerouteNo="0" devices="tripinfo_EW.cv.1 routing_EW.cv.1" vType="cv" speedFactor="1.19" vaporized=""/>
    <tripinfo id="EW.1" depart="38.00" departLane="-E2_1" departPos="5.10" departSpeed="15.55" departDelay="0.00" arrival="130.00" arrivalLane="-E0_0" arrivalPos="500.03" arrivalSpeed="15.55" duration="92.00" routeLength="1001.60" waitingTime="16.00" waitingCount="1" stopTime="0.00" timeLoss="26.73" rerouteNo="0" devices="tripinfo_EW.1 routing_EW.1" vType="car" speedFactor="0.99" vaporized=""/>
    <tripinfo id="EN.cv.0" depart="65.00" departLane="-E2_0" departPos="5.10" departSpeed="14.91" departDelay="0.00" arrival="130.00" arrivalLane="-E1_0" arrivalPos="498.92" arrivalSpeed="22.24" duration="65.00" routeLength="1000.49" waitingTime="0.00" waitingCount="0" stopTime="0.00" timeLoss="13.61" rerouteNo="0" devices="tripinfo_EN.cv.0 routing_EN.cv.0" vType="cv" speedFactor="1.11" vaporized=""/>
    <tripinfo id="WS.3" depart="66.00" departLane="E0_0" departPos="5.10" departSpeed="15.16" departDelay="0.00" arrival="131.00" arrivalLane="E3_1" arrivalPos="501.31" arrivalSpeed="19.49" duration="65.00" routeLength="995.54" waitingTime="0.00" waitingCount="0" stopTime="0.00" timeLoss="6.48" rerouteNo="0" devices="tripinfo_WS.3 routing_WS.3" vType="car" speedFactor="0.97" vaporized=""/>
    <tripinfo id="SE.cv.1" depart="61.00" departLane="-E3_0" departPos="5.10" departSpeed="18.45" departDelay="0.00" arrival="132.00" arrivalLane="E2_0" arrivalPos="508.36" arrivalSpeed="14.35" duration="71.00" routeLength="1004.51" waitingTime="0.00" waitingCount="0" stopTime="0.00" timeLoss="8.59" rerouteNo="0" devices="tripinfo_SE.cv.1 routing_SE.cv.1" vType="cv" speedFactor="0.92" vaporized=""/>
    <tripinfo id="SE.1" depart="69.00" departLane="-E3_0" departPos="5.10" departSpeed="21.06" departDelay="0.00" arrival="133.00" arrivalLane="E2_1" arrivalPos="508.36" arrivalSpeed="16.38" duration="64.00" routeLength="1004.51" waitingTime="0.00" waitingCount="0" stopTime="0.00" timeLoss="8.55" rerouteNo="0" devices="tripinfo_SE.1 routing_SE.1" vType="car" speedFactor="1.05" vaporized=""/>
    <tripinfo id="SE.2" depart="71.00" departLane="-E3_0" departPos="5.10" departSpeed="21.77" departDelay="0.00" arrival="135.00" arrivalLane="E2_1" arrivalPos="508.36" arrivalSpeed="16.68" duration="64.00" routeLength="1004.51" waitingTime="0.00" waitingCount="0" stopTime="0.00" timeLoss="11.12" rerouteNo="0" devices="tripinfo_SE.2 routing_SE.2" vType="car" speedFactor="1.08" vaporized=""/>
    <tripinfo id="EW.0" depart="29.00" departLane="-E2_0" departPos="5.10" departSpeed="12.83" departDelay="0.00" arrival="136.00" arrivalLane="-E0_0" arrivalPos="500.03" arrivalSpeed="12.83" duration="107.00" routeLength="1001.60" waitingTime="19.00" waitingCount="1" stopTime="0.00" timeLoss="28.77" rerouteNo="0" devices="tripinfo_EW.0 routing_EW.0" vType="car" speedFactor="0.82" vaporized=""/>
    <tripinfo id="EW.cv.0" depart="63.00" departLane="-E2_0" departPos="5.10" departSpeed="14.00" departDelay="0.00" arrival="138.00" arrivalLane="-E0_1" arrivalPos="500.03" arrivalSpeed="14.00" duration="75.00" routeLength="1001.60" waitingTime="0.00" waitingCount="0" stopTime="0.00" timeLoss="3.32" rerouteNo="0" devices="tripinfo_EW.cv.0 routing_EW.cv.0" vType="cv" speedFactor="0.89" vaporized=""/>
    <tripinfo id="NS.7" depart="87.00" departLane="E1_1" departPos="5.10" departSpeed="23.03" departDelay="0.00" arrival="138.00" arrivalLane="E3_0" arrivalPos="501.31" arrivalSpeed="23.02" duration="51.00" routeLength="994.98" waitingTime="0.00" waitingCount="0" stopTime="0.00" timeLoss="7.48" rerouteNo="0" devices="tripinfo_NS.7 routing_NS.7" vType="car" speedFactor="1.14" vaporized=""/>
    <tripinfo id="SE.3" depart="77.00" departLane="-E3_0" departPos="5.10" departSpeed="20.91" departDelay="0.00" arrival="139.00" arrivalLane="E2_0" arrivalPos="508.36" arrivalSpeed="16.26" duration="62.00" routeLength="1004.51" waitingTime="0.00" waitingCount="0" stopTime="0.00" timeLoss="6.60" rerouteNo="0" devices="tripinfo_SE.3 routing_SE.3" vType="car" speedFactor="1.04" vaporized=""/>
    <tripinfo id="NW.cv.1" depart="65.00" departLane="E1_0" departPos="5.10" departSpeed="16.75" departDelay="0.00" arrival="140.00" arrivalLane="-E0_0" arrivalPos="500.03" arrivalSpeed="13.01" duration="75.00" routeLength="993.70" waitingTime="0.00" waitingCount="0" stopTime="0.00" timeLoss="6.55" rerouteNo="0" devices="tripinfo_NW.cv.1 routing_NW.cv.1" vType="cv" speedFactor="0.83" vaporized=""/>
    <tripinfo id="NS.cv.4" depart="57.00" departLane="E1_1" departPos="5.10" departSpeed="19.07" departDelay="0.00" arrival="142.00" arrivalLane="E3_0" arrivalPos="501.31" arrivalSpeed="19.06" duration="85.00" routeLength="994.98" waitingTime="21.00" waitingCount="1" stopTime="0.00" timeLoss="32.80" rerouteNo="0" devices="tripinfo_NS.cv.4 routing_NS.cv.4" vType="cv" speedFactor="0.95" vaporized=""/>
    <tripinfo id="ES.cv.3" depart="103.00" departLane="-E2_2" departPos="5.10" departSpeed="16.35" departDelay="0.00" arrival="141.00" arrivalLane="E3_0" arrivalPos="501.31" arrivalSpeed="3.00" duration="38.00" routeLength="1002.88" waitingTime="0.00" waitingCount="0" stopTime="0.00" timeLoss="7.26" rerouteNo="0" devices="tripinfo_ES.cv.3 routing_ES.cv.3" vType="cv" speedFactor="1.04" vaporized="teleport"/>
    <tripinfo id="NS.cv.5" depart="90.00" departLane="E1_1" departPos="5.10" departSpeed="19.50" departDelay="0.00" arrival="144.00" arrivalLane="E3_1" arrivalPos="501.31" arrivalSpeed="19.50" duration="54.00" routeLength="994.98" waitingTime="0.00" waitingCount="0" stopTime="0.00" timeLoss="2.25" rerouteNo="0" devices="tripinfo_NS.cv.5 routing_NS.cv.5" vType="cv" speedFactor="0.97" vaporized=""/>
    <tripinfo id="NE.cv.0" depart="67.00" departLane="E1_3" departPos="5.10" departSpeed="22.83" departDelay="0.00" arrival="145.00" arrivalLane="E2_0" arrivalPos="508.36" arrivalSpeed="17.75" duration="78.00" routeLength="1002.03" waitingTime="14.00" waitingCount="1" stopTime="0.00" timeLoss="26.94" rerouteNo="0" devices="tripinfo_NE.cv.0 routing_NE.cv.0" vType="cv" speedFactor="1.13" vaporized=""/>
    <tripinfo id="NS.cv.6" depart="96.00" departLane="E1_2" departPos="5.10" departSpeed="24.27" departDelay="0.00" arrival="145.00" arrivalLane="E3_1" arrivalPos="501.31" arrivalSpeed="20.88" duration="49.00" routeLength="994.98" waitingTime="0.00" waitingCount="0" stopTime="0.00" timeLoss="7.95" rerouteNo="0" devices="tripinfo_NS.cv.6 routing_NS.cv.6" vType="cv" speedFactor="1.21" vaporized=""/>
    <tripinfo id="ES.cv.4" depart="108.00" departLane="-E2_3" departPos="5.10" departSpeed="14.92" departDelay="0.00" arrival="144.00" arrivalLane="E3_0" arrivalPos="501.31" arrivalSpeed="9.73" duration="36.00" routeLength="1002.88" waitingTime="0.00" waitingCount="0" stopTime="0.00" timeLoss="2.44" rerouteNo="0" devices="tripinfo_ES.cv.4 routing_ES.cv.4" vType="cv" speedFactor="0.95" vaporized="teleport"/>
    <tripinfo id="SN.cv.1" depart="78.00" departLane="-E3_1" departPos="5.10" departSpeed="22.39" departDelay="0.00" arrival="149.00" arrivalLane="-E1_0" arrivalPos="498.92" arrivalSpeed="22.39" duration="71.00" routeLength="995.07" waitingTime="13.00" waitingCount="1" stopTime="0.00" timeLoss="26.23" rerouteNo="0" devices="tripinfo_SN.cv.1 routing_SN.cv.1" vType="cv" speedFactor="1.11" vaporized=""/>
    <tripinfo id="SN.6" depart="81.00" departLane="-E3_1" departPos="5.10" departSpeed="25.35" departDelay="0.00" arrival="150.00" arrivalLane="-E1_1" arrivalPos="498.92" arrivalSpeed="25.34" duration="69.00" routeLength="995.07" waitingTime="13.00" waitingCount="1" stopTime="0.00" timeLoss="28.92" rerouteNo="0" devices="tripinfo_SN.6 routing_SN.6" vType="car" speedFactor="1.26" vaporized=""/>
    <tripinfo id="NS.8" depart="102.00" departLane="E1_1" departPos="5.10" departSpeed="21.10" departDelay="0.00" arrival="150.00" arrivalLane="E3_0" arrivalPos="501.31" arrivalSpeed="21.07" duration="48.00" routeLength="994.98" waitingTime="0.00" waitingCount="0" stopTime="0.00" timeLoss="0.66" rerouteNo="0" devices="tripinfo_NS.8 routing_NS.8" vType="car" speedFactor="1.05" vaporized=""/>
    <tripinfo id="EW.2" depart="77.00" departLane="-E2_0" departPos="5.10" departSpeed="14.25" departDelay="0.00" arrival="151.00" arrivalLane="-E0_0" arrivalPos="500.03" arrivalSpeed="2.60" duration="74.00" routeLength="1001.60" waitingTime="31.00" waitingCount="1" stopTime="0.00" timeLoss="38.69" rerouteNo="0" devices="tripinfo_EW.2 routing_EW.2" vType="car" speedFactor="0.91" vaporized="teleport"/>
    <tripinfo id="SN.5" depart="54.00" departLane="-E3_1" departPos="5.10" departSpeed="17.93" departDelay="0.00" arrival="154.00" arrivalLane="-E1_0" arrivalPos="498.92" arrivalSpeed="17.92" duration="100.00" routeLength="995.07" waitingTime="33.00" waitingCount="1" stopTime="0.00" timeLoss="44.03" rerouteNo="0" devices="tripinfo_SN.5 routing_SN.5" vType="car" speedFactor="0.89" vaporized=""/>
    <tripinfo id="NS.cv.7" depart="102.00" departLane="E1_2" departPos="5.10" departSpeed="19.36" departDelay="0.00" arrival="155.00" arrivalLane="E3_0" arrivalPos="501.31" arrivalSpeed="19.35" duration="53.00" routeLength="994.98" waitingTime="0.00" waitingCount="0" stopTime="0.00" timeLoss="0.89" rerouteNo="0" devices="tripinfo_NS.cv.7 routing_NS.cv.7" vType="cv" speedFactor="0.96" vaporized=""/>
    <tripinfo id="NS.cv.8" depart="104.00" departLane="E1_1" departPos="5.10" departSpeed="20.47" departDelay="0.00" arrival="155.00" arrivalLane="E3_1" arrivalPos="501.31" arrivalSpeed="20.47" duration="51.00" routeLength="994.98" waitingTime="0.00" waitingCount="0" stopTime="0.00" timeLoss="2.24" rerouteNo="0" devices="tripinfo_NS.cv.8 routing_NS.cv.8" vType="cv" speedFactor="1.02" vaporized=""/>
    <tripinfo id="NW.2" depart="120.00" departLane="E1_0" departPos="5.10" departSpeed="22.70" departDelay="0.00" arrival="154.00" arrivalLane="-E0_0" arrivalPos="500.03" arrivalSpeed="5.56" duration="34.00" routeLength="993.70" waitingTime="0.00" waitingCount="0" stopTime="0.00" timeLoss="12.11" rerouteNo="0" devices="tripinfo_NW.2 routing_NW.2" vType="car" speedFactor="1.13" vaporized="teleport"/>
    <tripinfo id="SE.4" depart="97.00" departLane="-E3_0" departPos="5.10" departSpeed="21.96" departDelay="0.00" arrival="158.00" arrivalLane="E2_0" arrivalPos="508.36" arrivalSpeed="17.08" duration="61.00" routeLength="1004.51" waitingTime="0.00" waitingCount="0" stopTime="0.00" timeLoss="7.81" rerouteNo="0" devices="tripinfo_SE.4 routing_SE.4" vType="car" speedFactor="1.09" vaporized=""/>
    <tripinfo id="SN.7" depart="106.00" departLane="-E3_1" departPos="5.10" departSpeed="19.79" departDelay="0.00" arrival="159.00" arrivalLane="-E1_1" arrivalPos="498.92" arrivalSpeed="19.79" duration="53.00" routeLength="995.07" waitingTime="0.00" waitingCount="0" stopTime="0.00" timeLoss="2.19" rerouteNo="0" devices="tripinfo_SN.7 routing_SN.7" vType="car" speedFactor="0.98" vaporized=""/>
    <tripinfo id="SN.cv.2" depart="94.00" departLane="-E3_1" departPos="5.10" departSpeed="16.87" departDelay="0.00" arrival="160.00" arrivalLane="-E1_0" arrivalPos="498.92" arrivalSpeed="16.87" duration="66.00" routeLength="995.07" waitingTime="0.00" waitingCount="0" stopTime="0.00" timeLoss="6.10" rerouteNo="0" devices="tripinfo_SN.cv.2 routing_SN.cv.2" vType="cv" speedFactor="0.84" vaporized=""/>
    <tripinfo id="NS.9" depart="106.00" departLane="E1_1" departPos="5.10" departSpeed="17.89" departDelay="0.00" arrival="162.00" arrivalLane="E3_0" arrivalPos="501.31" arrivalSpeed="17.89" duration="56.00" routeLength="994.98" waitingTime="0.00" waitingCount="0" stopTime="0.00" timeLoss="0.26" rerouteNo="0" devices="tripinfo_NS.9 routing_NS.9" vType="car" speedFactor="0.89" vaporized=""/>
    <tripinfo id="NW.0" depart="87.00" departLane="E1_0" departPos="5.10" departSpeed="15.97" departDelay="0.00" arrival="163.00" arrivalLane="-E0_0" arrivalPos="500.03" arrivalSpeed="12.42" duration="76.00" routeLength="993.70" waitingTime="0.00" waitingCount="0" stopTime="0.00" timeLoss="4.57" rerouteNo="0" devices="tripinfo_NW.0 routing_NW.0" vType="car" speedFactor="0.79" vaporized=""/>
    <tripinfo id="WN.1" depart="89.00" departLane="E0_2" departPos="5.10" departSpeed="16.63" departDelay="0.00" arrival="168.00" arrivalLane="-E1_1" arrivalPos="498.92" arrivalSpeed="21.38" duration="79.00" routeLength="993.15" waitingTime="13.00" waitingCount="1" stopTime="0.00" timeLoss="25.52" rerouteNo="0" devices="tripinfo_WN.1 routing_WN.1" vType="car" speedFactor="1.06" vaporized=""/>
    <tripinfo id="WS.cv.0" depart="89.00" departLane="E0_0" departPos="5.10" departSpeed="14.66" departDelay="0.00" arrival="171.00" arrivalLane="E3_0" arrivalPos="501.31" arrivalSpeed="18.85" duration="82.00" routeLength="995.54" waitingTime="10.00" waitingCount="1" stopTime="0.00" timeLoss="20.95" rerouteNo="0" devices="tripinfo_WS.cv.0 routing_WS.cv.0" vType="cv" speedFactor="0.94" vaporized=""/>
    <tripinfo id="NW.4" depart="138.00" departLane="E1_0" departPos="5.10" departSpeed="18.64" departDelay="0.00" arrival="170.00" arrivalLane="-E0_0" arrivalPos="500.03" arrivalSpeed="5.59" duration="32.00" routeLength="993.70" waitingTime="0.00" waitingCount="0" stopTime="0.00" timeLoss="5.31" rerouteNo="0" devices="tripinfo_NW.4 routing_NW.4" vType="car" speedFactor="0.93" vaporized="teleport"/>
    <tripinfo id="WS.4" depart="98.00" departLane="E0_0" departPos="5.10" departSpeed="13.62" departDelay="0.00" arrival="175.00" arrivalLane="E3_0" arrivalPos="501.31" arrivalSpeed="17.50" duration="77.00" routeLength="995.54" waitingTime="0.00" waitingCount="0" stopTime="0.00" timeLoss="12.01" rerouteNo="0" devices="tripinfo_WS.4 routing_WS.4" vType="car" speedFactor="0.87" vaporized=""/>
    <tripinfo id="WS.5" depart="102.00" departLane="E0_0" departPos="5.10" departSpeed="15.96" departDelay="0.00" arrival="179.00" arrivalLane="E3_0" arrivalPos="501.31" arrivalSpeed="20.43" duration="77.00" routeLength="995.54" waitingTime="0.00" waitingCount="0" stopTime="0.00" timeLoss="21.43" rerouteNo="0" devices="tripinfo_WS.5 routing_WS.5" vType="car" speedFactor="1.02" vaporized=""/>
    <tripinfo id="NW.1" depart="118.00" departLane="E1_0" departPos="5.10" departSpeed="23.61" departDelay="0.00" arrival="181.00" arrivalLane="-E0_0" arrivalPos="500.03" arrivalSpeed="18.37" duration="63.00" routeLength="993.70" waitingTime="0.00" waitingCount="0" stopTime="0.00" timeLoss="14.48" rerouteNo="0" devices="tripinfo_NW.1 routing_NW.1" vType="car" speedFactor="1.17" vaporized=""/>
    <tripinfo id="EW.3" depart="89.00" departLane="-E2_1" departPos="5.10" departSpeed="17.27" departDelay="0.00" arrival="183.00" arrivalLane="-E0_1" arrivalPos="500.03" arrivalSpeed="17.27" duration="94.00" routeLength="1001.60" waitingTime="24.00" waitingCount="1" stopTime="0.00" timeLoss="35.25" rerouteNo="0" devices="tripinfo_EW.3 routing_EW.3" vType="car" speedFactor="1.10" vaporized=""/>
    <tripinfo id="WE.1" depart="104.00" departLane="E0_1" departPos="5.10" departSpeed="17.28" departDelay="0.00" arrival="183.00" arrivalLane="E2_0" arrivalPos="508.36" arrivalSpeed="17.28" duration="79.00" routeLength="1002.59" waitingTime="9.00" waitingCount="1" stopTime="0.00" timeLoss="20.70" rerouteNo="0" devices="tripinfo_WE.1 routing_WE.1" vType="car" speedFactor="1.10" vaporized=""/>
    <tripinfo id="EW.cv.2" depart="104.00" departLane="-E2_1" departPos="5.10" departSpeed="14.93" departDelay="0.00" arrival="189.00" arrivalLane="-E0_0" arrivalPos="500.03" arrivalSpeed="14.93" duration="85.00" routeLength="1001.60" waitingTime="6.00" waitingCount="1" stopTime="0.00" timeLoss="17.80" rerouteNo="0" devices="tripinfo_EW.cv.2 routing_EW.cv.2" vType="cv" speedFactor="0.95" vaporized=""/>
    <tripinfo id="EW.4" depart="93.00" departLane="-E2_0" departPos="5.10" departSpeed="13.89" departDelay="0.00" arrival="192.00" arrivalLane="-E0_1" arrivalPos="500.03" arrivalSpeed="13.89" duration="99.00" routeLength="1001.60" waitingTime="15.00" waitingCount="1" stopTime="0.00" timeLoss="26.06" rerouteNo="0" devices="tripinfo_EW.4 routing_EW.4" vType="car" speedFactor="0.89" vaporized=""/>