<?xml version="1.0" encoding="UTF-8"?>

<!-- generated on 2023-01-30 11:48:03 by Eclipse SUMO sumo Version 1.13.0
<configuration xmlns:xsi="http://www.w3.org/2001/XMLSchema-instance" xsi:noNamespaceSchemaLocation="http://sumo.dlr.de/xsd/sumoConfiguration.xsd">

    <input>
        <net-file value="data/Eastway-Central.net.xml"/>
        <route-files value="data/cav40-offpeak.rou.xml"/>
        <additional-files value="data/Eastway-Central.add.xml"/>
    </input>

    <output>
        <tripinfo-output value="result\2023-01-30-11-43-39\27_tripinfo.xml"/>
    </output>

    <report>
        <no-warnings value="true"/>
        <no-step-log value="true"/>
    </report>

    <traci_server>
        <remote-port value="53258"/>
    </traci_server>

    <random_number>
        <seed value="26"/>
    </random_number>

</configuration>
-->

<tripinfos xmlns:xsi="http://www.w3.org/2001/XMLSchema-instance" xsi:noNamespaceSchemaLocation="http://sumo.dlr.de/xsd/tripinfo_file.xsd">
    <tripinfo id="ES.0" depart="8.00" departLane="-E2_2" departPos="5.10" departSpeed="14.64" departDelay="0.00" arrival="46.00" arrivalLane="E3_0" arrivalPos="501.31" arrivalSpeed="5.77" duration="38.00" routeLength="1002.88" waitingTime="0.00" waitingCount="0" stopTime="0.00" timeLoss="3.74" rerouteNo="0" devices="tripinfo_ES.0 routing_ES.0" vType="car" speedFactor="0.94" vaporized="teleport"/>
    <tripinfo id="BNS.0" depart="0.00" departLane="E1_1" departPos="12.10" departSpeed="20.12" departDelay="0.00" arrival="50.00" arrivalLane="E3_0" arrivalPos="501.31" arrivalSpeed="20.12" duration="50.00" routeLength="987.98" waitingTime="0.00" waitingCount="0" stopTime="0.00" timeLoss="0.19" rerouteNo="0" devices="tripinfo_BNS.0 routing_BNS.0" vType="bus" speedFactor="1.00" vaporized=""/>
    <tripinfo id="NS.0" depart="6.00" departLane="E1_1" departPos="5.10" departSpeed="23.16" departDelay="0.00" arrival="51.00" arrivalLane="E3_1" arrivalPos="501.31" arrivalSpeed="23.16" duration="45.00" routeLength="994.98" waitingTime="0.00" waitingCount="0" stopTime="0.00" timeLoss="1.86" rerouteNo="0" devices="tripinfo_NS.0 routing_NS.0" vType="car" speedFactor="1.15" vaporized=""/>
    <tripinfo id="NS.cv.0" depart="4.00" departLane="E1_2" departPos="5.10" departSpeed="20.48" departDelay="0.00" arrival="54.00" arrivalLane="E3_0" arrivalPos="501.31" arrivalSpeed="20.42" duration="50.00" routeLength="994.98" waitingTime="0.00" waitingCount="0" stopTime="0.00" timeLoss="0.83" rerouteNo="0" devices="tripinfo_NS.cv.0 routing_NS.cv.0" vType="cv" speedFactor="1.02" vaporized=""/>
    <tripinfo id="SN.1" depart="16.00" departLane="-E3_2" departPos="5.10" departSpeed="23.14" departDelay="0.00" arrival="60.00" arrivalLane="-E1_1" arrivalPos="498.92" arrivalSpeed="23.14" duration="44.00" routeLength="995.07" waitingTime="0.00" waitingCount="0" stopTime="0.00" timeLoss="0.00" rerouteNo="0" devices="tripinfo_SN.1 routing_SN.1" vType="car" speedFactor="1.15" vaporized=""/>
    <tripinfo id="SN.0" depart="11.00" departLane="-E3_1" departPos="5.10" departSpeed="20.09" departDelay="0.00" arrival="61.00" arrivalLane="-E1_0" arrivalPos="498.92" arrivalSpeed="20.09" duration="50.00" routeLength="995.07" waitingTime="0.00" waitingCount="0" stopTime="0.00" timeLoss="0.00" rerouteNo="0" devices="tripinfo_SN.0 routing_SN.0" vType="car" speedFactor="1.00" vaporized=""/>
    <tripinfo id="SN.cv.0" depart="19.00" departLane="-E3_2" departPos="5.10" departSpeed="23.68" departDelay="0.00" arrival="63.00" arrivalLane="-E1_1" arrivalPos="498.92" arrivalSpeed="23.50" duration="44.00" routeLength="995.07" waitingTime="0.00" waitingCount="0" stopTime="0.00" timeLoss="1.37" rerouteNo="0" devices="tripinfo_SN.cv.0 routing_SN.cv.0" vType="cv" speedFactor="1.18" vaporized=""/>
    <tripinfo id="NS.1" depart="11.00" departLane="E1_1" departPos="5.10" departSpeed="18.43" departDelay="0.00" arrival="66.00" arrivalLane="E3_0" arrivalPos="501.31" arrivalSpeed="18.43" duration="55.00" routeLength="994.98" waitingTime="0.00" waitingCount="0" stopTime="0.00" timeLoss="0.09" rerouteNo="0" devices="tripinfo_NS.1 routing_NS.1" vType="car" speedFactor="0.92" vaporized=""/>
    <tripinfo id="NW.cv.0" depart="1.00" departLane="E1_0" departPos="5.10" departSpeed="18.11" departDelay="0.00" arrival="70.00" arrivalLane="-E0_0" arrivalPos="500.03" arrivalSpeed="14.09" duration="69.00" routeLength="993.70" waitingTime="0.00" waitingCount="0" stopTime="0.00" timeLoss="5.61" rerouteNo="0" devices="tripinfo_NW.cv.0 routing_NW.cv.0" vType="cv" speedFactor="0.90" vaporized=""/>
    <tripinfo id="WS.0" depart="7.00" departLane="E0_0" departPos="5.10" departSpeed="15.85" departDelay="0.00" arrival="74.00" arrivalLane="E3_0" arrivalPos="501.31" arrivalSpeed="20.37" duration="67.00" routeLength="995.54" waitingTime="0.00" waitingCount="0" stopTime="0.00" timeLoss="10.79" rerouteNo="0" devices="tripinfo_WS.0 routing_WS.0" vType="car" speedFactor="1.01" vaporized=""/>
    <tripinfo id="ES.cv.1" depart="16.00" departLane="-E2_2" departPos="5.10" departSpeed="15.96" departDelay="0.00" arrival="74.00" arrivalLane="E3_1" arrivalPos="501.31" arrivalSpeed="20.52" duration="58.00" routeLength="1002.88" waitingTime="0.00" waitingCount="0" stopTime="0.00" timeLoss="2.20" rerouteNo="0" devices="tripinfo_ES.cv.1 routing_ES.cv.1" vType="cv" speedFactor="1.02" vaporized=""/>
    <tripinfo id="EW.0" depart="12.00" departLane="-E2_0" departPos="5.10" departSpeed="17.91" departDelay="0.00" arrival="77.00" arrivalLane="-E0_0" arrivalPos="500.03" arrivalSpeed="17.90" duration="65.00" routeLength="1001.60" waitingTime="0.00" waitingCount="0" stopTime="0.00" timeLoss="8.28" rerouteNo="0" devices="tripinfo_EW.0 routing_EW.0" vType="car" speedFactor="1.14" vaporized=""/>
    <tripinfo id="ES.1" depart="20.00" departLane="-E2_3" departPos="5.10" departSpeed="16.47" departDelay="0.00" arrival="77.00" arrivalLane="E3_1" arrivalPos="501.31" arrivalSpeed="20.98" duration="57.00" routeLength="1002.88" waitingTime="0.00" waitingCount="0" stopTime="0.00" timeLoss="2.86" rerouteNo="0" devices="tripinfo_ES.1 routing_ES.1" vType="car" speedFactor="1.05" vaporized=""/>
    <tripinfo id="ES.cv.0" depart="12.00" departLane="-E2_3" departPos="5.10" departSpeed="13.73" departDelay="0.00" arrival="80.00" arrivalLane="E3_0" arrivalPos="501.31" arrivalSpeed="17.64" duration="68.00" routeLength="1002.88" waitingTime="0.00" waitingCount="0" stopTime="0.00" timeLoss="2.47" rerouteNo="0" devices="tripinfo_ES.cv.0 routing_ES.cv.0" vType="cv" speedFactor="0.88" vaporized=""/>
    <tripinfo id="WS.cv.0" depart="16.00" departLane="E0_0" departPos="5.10" departSpeed="15.12" departDelay="0.00" arrival="82.00" arrivalLane="E3_1" arrivalPos="501.31" arrivalSpeed="19.43" duration="66.00" routeLength="995.54" waitingTime="0.00" waitingCount="0" stopTime="0.00" timeLoss="7.10" rerouteNo="0" devices="tripinfo_WS.cv.0 routing_WS.cv.0" vType="cv" speedFactor="0.97" vaporized=""/>
    <tripinfo id="EW.1" depart="18.00" departLane="-E2_1" departPos="5.10" departSpeed="15.98" departDelay="0.00" arrival="83.00" arrivalLane="-E0_0" arrivalPos="500.03" arrivalSpeed="15.98" duration="65.00" routeLength="1001.60" waitingTime="0.00" waitingCount="0" stopTime="0.00" timeLoss="1.37" rerouteNo="0" devices="tripinfo_EW.1 routing_EW.1" vType="car" speedFactor="1.02" vaporized=""/>
    <tripinfo id="WS.1" depart="17.00" departLane="E0_0" departPos="5.10" departSpeed="11.60" departDelay="0.00" arrival="89.00" arrivalLane="E3_0" arrivalPos="501.31" arrivalSpeed="17.60" duration="72.00" routeLength="995.54" waitingTime="0.00" waitingCount="0" stopTime="0.00" timeLoss="6.62" rerouteNo="0" devices="tripinfo_WS.1 routing_WS.1" vType="car" speedFactor="0.87" vaporized=""/>
    <tripinfo id="NW.cv.1" depart="25.00" departLane="E1_0" departPos="5.10" departSpeed="21.02" departDelay="0.00" arrival="93.00" arrivalLane="-E0_0" arrivalPos="500.03" arrivalSpeed="16.35" duration="68.00" routeLength="993.70" waitingTime="1.00" waitingCount="1" stopTime="0.00" timeLoss="13.59" rerouteNo="0" devices="tripinfo_NW.cv.1 routing_NW.cv.1" vType="cv" speedFactor="1.04" vaporized=""/>
    <tripinfo id="WE.cv.0" depart="29.00" departLane="E0_1" departPos="5.10" departSpeed="16.36" departDelay="0.00" arrival="93.00" arrivalLane="E2_0" arrivalPos="508.36" arrivalSpeed="16.36" duration="64.00" routeLength="1002.59" waitingTime="0.00" waitingCount="0" stopTime="0.00" timeLoss="1.73" rerouteNo="0" devices="tripinfo_WE.cv.0 routing_WE.cv.0" vType="cv" speedFactor="1.05" vaporized=""/>
    <tripinfo id="ES.cv.2" depart="45.00" departLane="-E2_2" departPos="5.10" departSpeed="16.46" departDelay="0.00" arrival="96.00" arrivalLane="E3_0" arrivalPos="501.31" arrivalSpeed="2.60" duration="51.00" routeLength="1002.88" waitingTime="12.00" waitingCount="1" stopTime="0.00" timeLoss="20.47" rerouteNo="0" devices="tripinfo_ES.cv.2 routing_ES.cv.2" vType="cv" speedFactor="1.05" vaporized="teleport"/>
    <tripinfo id="SN.2" depart="19.00" departLane="-E3_1" departPos="5.10" departSpeed="19.87" departDelay="0.00" arrival="105.00" arrivalLane="-E1_0" arrivalPos="498.92" arrivalSpeed="19.87" duration="86.00" routeLength="995.07" waitingTime="24.00" waitingCount="1" stopTime="0.00" timeLoss="35.88" rerouteNo="0" devices="tripinfo_SN.2 routing_SN.2" vType="car" speedFactor="0.99" vaporized=""/>
    <tripinfo id="SN.cv.1" depart="21.00" departLane="-E3_2" departPos="5.10" departSpeed="20.49" departDelay="0.00" arrival="105.00" arrivalLane="-E1_1" arrivalPos="498.92" arrivalSpeed="20.49" duration="84.00" routeLength="995.07" waitingTime="23.00" waitingCount="1" stopTime="0.00" timeLoss="34.76" rerouteNo="0" devices="tripinfo_SN.cv.1 routing_SN.cv.1" vType="cv" speedFactor="1.02" vaporized=""/>
    <tripinfo id="NS.cv.2" depart="22.00" departLane="E1_1" departPos="5.10" departSpeed="18.68" departDelay="0.00" arrival="107.00" arrivalLane="E3_0" arrivalPos="501.31" arrivalSpeed="18.68" duration="85.00" routeLength="994.98" waitingTime="19.00" waitingCount="1" stopTime="0.00" timeLoss="31.16" rerouteNo="0" devices="tripinfo_NS.cv.2 routing_NS.cv.2" vType="cv" speedFactor="0.93" vaporized=""/>
    <tripinfo id="NS.cv.1" depart="16.00" departLane="E1_2" departPos="5.10" departSpeed="17.88" departDelay="0.00" arrival="108.00" arrivalLane="E3_1" arrivalPos="501.31" arrivalSpeed="17.88" duration="92.00" routeLength="994.98" waitingTime="25.00" waitingCount="1" stopTime="0.00" timeLoss="35.81" rerouteNo="0" devices="tripinfo_NS.cv.1 routing_NS.cv.1" vType="cv" speedFactor="0.89" vaporized=""/>
    <tripinfo id="SN.3" depart="39.00" departLane="-E3_2" departPos="5.10" departSpeed="20.89" departDelay="0.00" arrival="108.00" arrivalLane="-E1_0" arrivalPos="498.92" arrivalSpeed="20.62" duration="69.00" routeLength="995.07" waitingTime="1.00" waitingCount="1" stopTime="0.00" timeLoss="20.85" rerouteNo="0" devices="tripinfo_SN.3 routing_SN.3" vType="car" speedFactor="1.04" vaporized=""/>
    <tripinfo id="NS.2" depart="29.00" departLane="E1_2" departPos="5.10" departSpeed="24.78" departDelay="0.00" arrival="109.00" arrivalLane="E3_1" arrivalPos="501.31" arrivalSpeed="19.68" duration="80.00" routeLength="994.98" waitingTime="20.00" waitingCount="1" stopTime="0.00" timeLoss="39.83" rerouteNo="0" devices="tripinfo_NS.2 routing_NS.2" vType="car" speedFactor="1.23" vaporized=""/>
    <tripinfo id="SN.cv.2" depart="32.00" departLane="-E3_1" departPos="5.10" departSpeed="19.08" departDelay="0.00" arrival="109.00" arrivalLane="-E1_1" arrivalPos="498.92" arrivalSpeed="19.06" duration="77.00" routeLength="995.07" waitingTime="11.00" waitingCount="1" stopTime="0.00" timeLoss="24.40" rerouteNo="0" devices="tripinfo_SN.cv.2 routing_SN.cv.2" vType="cv" speedFactor="0.95" vaporized=""/>
    <tripinfo id="NS.cv.3" depart="36.00" departLane="E1_1" departPos="5.10" departSpeed="22.93" departDelay="0.00" arrival="109.00" arrivalLane="E3_0" arrivalPos="501.31" arrivalSpeed="19.14" duration="73.00" routeLength="994.98" waitingTime="9.00" waitingCount="1" stopTime="0.00" timeLoss="29.62" rerouteNo="0" devices="tripinfo_NS.cv.3 routing_NS.cv.3" vType="cv" speedFactor="1.14" vaporized=""/>
    <tripinfo id="SN.4" depart="44.00" departLane="-E3_1" departPos="5.10" departSpeed="22.08" departDelay="0.00" arrival="111.00" arrivalLane="-E1_1" arrivalPos="498.92" arrivalSpeed="20.73" duration="67.00" routeLength="995.07" waitingTime="2.00" waitingCount="1" stopTime="0.00" timeLoss="21.34" rerouteNo="0" devices="tripinfo_SN.4 routing_SN.4" vType="car" speedFactor="1.10" vaporized=""/>
    <tripinfo id="NS.cv.4" depart="49.00" departLane="E1_2" departPos="5.10" departSpeed="22.05" departDelay="0.00" arrival="111.00" arrivalLane="E3_1" arrivalPos="501.31" arrivalSpeed="20.25" duration="62.00" routeLength="994.98" waitingTime="0.00" waitingCount="0" stopTime="0.00" timeLoss="16.62" rerouteNo="0" devices="tripinfo_NS.cv.4 routing_NS.cv.4" vType="cv" speedFactor="1.10" vaporized=""/>
    <tripinfo id="NS.3" depart="48.00" departLane="E1_1" departPos="5.10" departSpeed="19.84" departDelay="0.00" arrival="112.00" arrivalLane="E3_0" arrivalPos="501.31" arrivalSpeed="19.43" duration="64.00" routeLength="994.98" waitingTime="0.00" waitingCount="0" stopTime="0.00" timeLoss="13.11" rerouteNo="0" devices="tripinfo_NS.3 routing_NS.3" vType="car" speedFactor="0.99" vaporized=""/>
    <tripinfo id="NS.cv.5" depart="50.00" departLane="E1_1" departPos="5.10" departSpeed="20.92" departDelay="0.00" arrival="113.00" arrivalLane="E3_1" arrivalPos="501.31" arrivalSpeed="19.96" duration="63.00" routeLength="994.98" waitingTime="0.00" waitingCount="0" stopTime="0.00" timeLoss="15.20" rerouteNo="0" devices="tripinfo_NS.cv.5 routing_NS.cv.5" vType="cv" speedFactor="1.04" vaporized=""/>
    <tripinfo id="SN.cv.3" depart="52.00" departLane="-E3_1" departPos="5.10" departSpeed="17.28" departDelay="0.00" arrival="115.00" arrivalLane="-E1_0" arrivalPos="498.92" arrivalSpeed="17.28" duration="63.00" routeLength="995.07" waitingTime="0.00" waitingCount="0" stopTime="0.00" timeLoss="5.06" rerouteNo="0" devices="tripinfo_SN.cv.3 routing_SN.cv.3" vType="cv" speedFactor="0.86" vaporized=""/>
    <tripinfo id="NS.4" depart="60.00" departLane="E1_2" departPos="5.10" departSpeed="19.03" departDelay="0.00" arrival="116.00" arrivalLane="E3_0" arrivalPos="501.31" arrivalSpeed="18.97" duration="56.00" routeLength="994.98" waitingTime="0.00" waitingCount="0" stopTime="0.00" timeLoss="3.25" rerouteNo="0" devices="tripinfo_NS.4 routing_NS.4" vType="car" speedFactor="0.95" vaporized=""/>
    <tripinfo id="NS.5" depart="65.00" departLane="E1_1" departPos="5.10" departSpeed="20.39" departDelay="0.00" arrival="118.00" arrivalLane="E3_1" arrivalPos="501.31" arrivalSpeed="20.35" duration="53.00" routeLength="994.98" waitingTime="0.00" waitingCount="0" stopTime="0.00" timeLoss="3.39" rerouteNo="0" devices="tripinfo_NS.5 routing_NS.5" vType="car" speedFactor="1.01" vaporized=""/>
    <tripinfo id="SE.0" depart="55.00" departLane="-E3_0" departPos="5.10" departSpeed="20.71" departDelay="0.00" arrival="119.00" arrivalLane="E2_0" arrivalPos="508.36" arrivalSpeed="16.11" duration="64.00" routeLength="1004.51" waitingTime="0.00" waitingCount="0" stopTime="0.00" timeLoss="8.44" rerouteNo="0" devices="tripinfo_SE.0 routing_SE.0" vType="car" speedFactor="1.03" vaporized=""/>
    <tripinfo id="SN.5" depart="59.00" departLane="-E3_2" departPos="5.10" departSpeed="17.05" departDelay="0.00" arrival="119.00" arrivalLane="-E1_0" arrivalPos="498.92" arrivalSpeed="17.02" duration="60.00" routeLength="995.07" waitingTime="0.00" waitingCount="0" stopTime="0.00" timeLoss="1.25" rerouteNo="0" devices="tripinfo_SN.5 routing_SN.5" vType="car" speedFactor="0.85" vaporized=""/>
    <tripinfo id="WN.1" depart="38.00" departLane="E0_3" departPos="5.10" departSpeed="16.63" departDelay="0.00" arrival="123.00" arrivalLane="-E1_1" arrivalPos="498.92" arrivalSpeed="21.39" duration="85.00" routeLength="993.15" waitingTime="19.00" waitingCount="1" stopTime="0.00" timeLoss="31.50" rerouteNo="0" devices="tripinfo_WN.1 routing_WN.1" vType="car" speedFactor="1.06" vaporized=""/>
    <tripinfo id="WN.0" depart="32.00" departLane="E0_2" departPos="5.10" departSpeed="15.93" departDelay="0.00" arrival="124.00" arrivalLane="-E1_0" arrivalPos="498.92" arrivalSpeed="20.44" duration="92.00" routeLength="993.15" waitingTime="24.00" waitingCount="1" stopTime="0.00" timeLoss="36.27" rerouteNo="0" devices="tripinfo_WN.0 routing_WN.0" vType="car" speedFactor="1.02" vaporized=""/>
    <tripinfo id="WN.2" depart="65.00" departLane="E0_3" departPos="5.10" departSpeed="15.98" departDelay="0.00" arrival="127.00" arrivalLane="-E1_0" arrivalPos="498.92" arrivalSpeed="20.35" duration="62.00" routeLength="993.15" waitingTime="0.00" waitingCount="0" stopTime="0.00" timeLoss="6.24" rerouteNo="0" devices="tripinfo_WN.2 routing_WN.2" vType="car" speedFactor="1.02" vaporized=""/>
    <tripinfo id="ES.2" depart="64.00" departLane="-E2_3" departPos="5.10" departSpeed="14.50" departDelay="0.00" arrival="128.00" arrivalLane="E3_1" arrivalPos="501.31" arrivalSpeed="18.64" duration="64.00" routeLength="1002.88" waitingTime="0.00" waitingCount="0" stopTime="0.00" timeLoss="2.28" rerouteNo="0" devices="tripinfo_ES.2 routing_ES.2" vType="car" speedFactor="0.93" vaporized=""/>
    <tripinfo id="WS.2" depart="43.00" departLane="E0_0" departPos="5.10" departSpeed="13.00" departDelay="0.00" arrival="129.00" arrivalLane="E3_0" arrivalPos="501.31" arrivalSpeed="16.71" duration="86.00" routeLength="995.54" waitingTime="5.00" waitingCount="1" stopTime="0.00" timeLoss="17.18" rerouteNo="0" devices="tripinfo_WS.2 routing_WS.2" vType="car" speedFactor="0.83" vaporized=""/>
    <tripinfo id="NW.cv.2" depart="62.00" departLane="E1_0" departPos="5.10" departSpeed="20.93" departDelay="0.00" arrival="129.00" arrivalLane="-E0_0" arrivalPos="500.03" arrivalSpeed="16.28" duration="67.00" routeLength="993.70" waitingTime="1.00" waitingCount="1" stopTime="0.00" timeLoss="12.44" rerouteNo="0" devices="tripinfo_NW.cv.2 routing_NW.cv.2" vType="cv" speedFactor="1.04" vaporized=""/>
    <tripinfo id="EN.0" depart="65.00" departLane="-E2_0" departPos="5.10" departSpeed="14.34" departDelay="0.00" arrival="137.00" arrivalLane="-E1_0" arrivalPos="498.92" arrivalSpeed="18.43" duration="72.00" routeLength="1000.49" waitingTime="0.00" waitingCount="0" stopTime="0.00" timeLoss="9.51" rerouteNo="0" devices="tripinfo_EN.0 routing_EN.0" vType="car" speedFactor="0.92" vaporized=""/>
    <tripinfo id="EN.1" depart="79.00" departLane="-E2_0" departPos="5.10" departSpeed="17.48" departDelay="0.00" arrival="137.00" arrivalLane="-E1_1" arrivalPos="498.92" arrivalSpeed="22.47" duration="58.00" routeLength="1000.49" waitingTime="0.00" waitingCount="0" stopTime="0.00" timeLoss="6.85" rerouteNo="0" devices="tripinfo_EN.1 routing_EN.1" vType="car" speedFactor="1.12" vaporized=""/>
    <tripinfo id="SE.cv.0" depart="70.00" departLane="-E3_0" departPos="5.10" departSpeed="18.55" departDelay="0.00" arrival="138.00" arrivalLane="E2_0" arrivalPos="508.36" arrivalSpeed="14.43" duration="68.00" routeLength="1004.51" waitingTime="0.00" waitingCount="0" stopTime="0.00" timeLoss="5.00" rerouteNo="0" devices="tripinfo_SE.cv.0 routing_SE.cv.0" vType="cv" speedFactor="0.92" vaporized=""/>
    <tripinfo id="WS.cv.1" depart="66.00" departLane="E0_0" departPos="5.10" departSpeed="15.45" departDelay="0.00" arrival="139.00" arrivalLane="E3_1" arrivalPos="501.31" arrivalSpeed="19.87" duration="73.00" routeLength="995.54" waitingTime="3.00" waitingCount="1" stopTime="0.00" timeLoss="15.12" rerouteNo="0" devices="tripinfo_WS.cv.1 routing_WS.cv.1" vType="cv" speedFactor="0.99" vaporized=""/>
    <tripinfo id="EW.cv.0" depart="43.00" departLane="-E2_1" departPos="5.10" departSpeed="16.76" departDelay="0.00" arrival="140.00" arrivalLane="-E0_0" arrivalPos="500.03" arrivalSpeed="16.76" duration="97.00" routeLength="1001.60" waitingTime="26.00" waitingCount="1" stopTime="0.00" timeLoss="36.30" rerouteNo="0" devices="tripinfo_EW.cv.0 routing_EW.cv.0" vType="cv" speedFactor="1.07" vaporized=""/>
    <tripinfo id="WS.cv.2" depart="71.00" departLane="E0_0" departPos="5.10" departSpeed="16.62" departDelay="0.00" arrival="141.00" arrivalLane="E3_1" arrivalPos="501.31" arrivalSpeed="20.84" duration="70.00" routeLength="995.54" waitingTime="1.00" waitingCount="1" stopTime="0.00" timeLoss="16.67" rerouteNo="0" devices="tripinfo_WS.cv.2 routing_WS.cv.2" vType="cv" speedFactor="1.06" vaporized=""/>
    <tripinfo id="WE.cv.1" depart="42.00" departLane="E0_0" departPos="5.10" departSpeed="15.90" departDelay="0.00" arrival="142.00" arrivalLane="E2_1" arrivalPos="508.36" arrivalSpeed="15.90" duration="100.00" routeLength="1002.59" waitingTime="27.00" waitingCount="1" stopTime="0.00" timeLoss="36.92" rerouteNo="0" devices="tripinfo_WE.cv.1 routing_WE.cv.1" vType="cv" speedFactor="1.02" vaporized=""/>
    <tripinfo id="WE.0" depart="62.00" departLane="E0_1" departPos="5.10" departSpeed="16.12" departDelay="0.00" arrival="142.00" arrivalLane="E2_0" arrivalPos="508.36" arrivalSpeed="16.10" duration="80.00" routeLength="1002.59" waitingTime="4.00" waitingCount="1" stopTime="0.00" timeLoss="17.77" rerouteNo="0" devices="tripinfo_WE.0 routing_WE.0" vType="car" speedFactor="1.03" vaporized=""/>
    <tripinfo id="NW.cv.3" depart="79.00" departLane="E1_0" departPos="5.10" departSpeed="20.21" departDelay="0.00" arrival="144.00" arrivalLane="-E0_0" arrivalPos="500.03" arrivalSpeed="15.71" duration="65.00" routeLength="993.70" waitingTime="0.00" waitingCount="0" stopTime="0.00" timeLoss="7.93" rerouteNo="0" devices="tripinfo_NW.cv.3 routing_NW.cv.3" vType="cv" speedFactor="1.00" vaporized=""/>
    <tripinfo id="WS.cv.3" depart="82.00" departLane="E0_0" departPos="5.10" departSpeed="14.85" departDelay="0.00" arrival="153.00" arrivalLane="E3_1" arrivalPos="501.31" arrivalSpeed="19.09" duration="71.00" routeLength="995.54" waitingTime="0.00" waitingCount="0" stopTime="0.00" timeLoss="11.06" rerouteNo="0" devices="tripinfo_WS.cv.3 routing_WS.cv.3" vType="cv" speedFactor="0.95" vaporized=""/>
    <tripinfo id="WS.3" depart="77.00" departLane="E0_0" departPos="5.10" departSpeed="12.35" departDelay="0.00" arrival="154.00" arrivalLane="E3_0" arrivalPos="501.31" arrivalSpeed="15.87" duration="77.00" routeLength="995.54" waitingTime="0.00" waitingCount="0" stopTime="0.00" timeLoss="5.36" rerouteNo="0" devices="tripinfo_WS.3 routing_WS.3" vType="car" speedFactor="0.79" vaporized=""/>
    <tripinfo id="WE.1" depart="84.00" departLane="E0_1" departPos="5.10" departSpeed="14.54" departDelay="0.00" arrival="154.00" arrivalLane="E2_0" arrivalPos="508.36" arrivalSpeed="14.54" duration="70.00" routeLength="1002.59" waitingTime="0.00" waitingCount="0" stopTime="0.00" timeLoss="0.35" rerouteNo="0" devices="tripinfo_WE.1 routing_WE.1" vType="car" speedFactor="0.93" vaporized=""/>
    <tripinfo id="EW.cv.1" depart="92.00" departLane="-E2_0" departPos="5.10" departSpeed="15.16" departDelay="0.00" arrival="159.00" arrivalLane="-E0_0" arrivalPos="500.03" arrivalSpeed="15.16" duration="67.00" routeLength="1001.60" waitingTime="0.00" waitingCount="0" stopTime="0.00" timeLoss="0.14" rerouteNo="0" devices="tripinfo_EW.cv.1 routing_EW.cv.1" vType="cv" speedFactor="0.97" vaporized=""/>
    <tripinfo id="EW.2" depart="90.00" departLane="-E2_1" departPos="5.10" departSpeed="14.32" departDelay="0.00" arrival="161.00" arrivalLane="-E0_1" arrivalPos="500.03" arrivalSpeed="14.27" duration="71.00" routeLength="1001.60" waitingTime="0.00" waitingCount="0" stopTime="0.00" timeLoss="0.62" rerouteNo="0" devices="tripinfo_EW.2 routing_EW.2" vType="car" speedFactor="0.92" vaporized=""/>
    <tripinfo id="WS.5" depart="95.00" departLane="E0_0" departPos="5.10" departSpeed="15.96" departDelay="0.00" arrival="162.00" arrivalLane="E3_1" arrivalPos="501.31" arrivalSpeed="20.52" duration="67.00" routeLength="995.54" waitingTime="0.00" waitingCount="0" stopTime="0.00" timeLoss="11.52" rerouteNo="0" devices="tripinfo_WS.5 routing_WS.5" vType="car" speedFactor="1.02" vaporized=""/>
    <tripinfo id="WS.4" depart="91.00" departLane="E0_0" departPos="5.10" departSpeed="13.92" departDelay="0.00" arrival="163.00" arrivalLane="E3_0" arrivalPos="501.31" arrivalSpeed="17.90" duration="72.00" routeLength="995.54" waitingTime="0.00" waitingCount="0" stopTime="0.00" timeLoss="7.77" rerouteNo="0" devices="tripinfo_WS.4 routing_WS.4" vType="car" speedFactor="0.89" vaporized=""/>
    <tripinfo id="SW.0" depart="84.00" departLane="-E3_3" departPos="5.10" departSpeed="18.82" departDelay="0.00" arrival="168.00" arrivalLane="-E0_0" arrivalPos="500.03" arrivalSpeed="14.64" duration="84.00" routeLength="996.18" waitingTime="12.00" waitingCount="1" stopTime="0.00" timeLoss="23.46" rerouteNo="0" devices="tripinfo_SW.0 routing_SW.0" vType="car" speedFactor="0.94" vaporized=""/>
    <tripinfo id="NS.cv.6" depart="85.00" departLane="E1_2" departPos="5.10" departSpeed="22.55" departDelay="0.00" arrival="168.00" arrivalLane="E3_0" arrivalPos="501.31" arrivalSpeed="22.51" duration="83.00" routeLength="994.98" waitingTime="25.00" waitingCount="1" stopTime="0.00" timeLoss="38.73" rerouteNo="0" devices="tripinfo_NS.cv.6 routing_NS.cv.6" vType="cv" speedFactor="1.12" vaporized=""/>
    <tripinfo id="ES.3" depart="92.00" departLane="-E2_3" departPos="5.10" departSpeed="17.55" departDelay="0.00" arrival="167.00" arrivalLane="E3_0" arrivalPos="501.31" arrivalSpeed="2.60" duration="75.00" routeLength="1002.88" waitingTime="37.00" waitingCount="1" stopTime="0.00" timeLoss="46.37" rerouteNo="0" devices="tripinfo_ES.3 routing_ES.3" vType="car" speedFactor="1.12" vaporized="teleport"/>
    <tripinfo id="WN.3" depart="105.00" departLane="E0_2" departPos="5.10" departSpeed="16.61" departDelay="0.00" arrival="167.00" arrivalLane="-E1_0" arrivalPos="498.92" arrivalSpeed="2.60" duration="62.00" routeLength="993.15" waitingTime="23.00" waitingCount="1" stopTime="0.00" timeLoss="32.18" rerouteNo="0" devices="tripinfo_WN.3 routing_WN.3" vType="car" speedFactor="1.06" vaporized="teleport"/>
    <tripinfo id="NE.0" depart="50.00" departLane="E1_3" departPos="5.10" departSpeed="18.57" departDelay="0.00" arrival="169.00" arrivalLane="E2_0" arrivalPos="508.36" arrivalSpeed="14.44" duration="119.00" routeLength="1002.03" waitingTime="46.00" waitingCount="1" stopTime="0.00" timeLoss="57.11" rerouteNo="0" devices="tripinfo_NE.0 routing_NE.0" vType="car" speedFactor="0.92" vaporized=""/>
    <tripinfo id="SN.7" depart="80.00" departLane="-E3_2" departPos="5.10" departSpeed="20.68" departDelay="0.00" arrival="170.00" arrivalLane="-E1_0" arrivalPos="498.92" arrivalSpeed="20.68" duration="90.00" routeLength="995.07" waitingTime="29.00" waitingCount="1" stopTime="0.00" timeLoss="41.03" rerouteNo="0" devices="tripinfo_SN.7 routing_SN.7" vType="car" speedFactor="1.03" vaporized=""/>
    <tripinfo id="NS.6" depart="74.00" departLane="E1_1" departPos="5.10" departSpeed="20.25" departDelay="0.00" arrival="171.00" arrivalLane="E3_0" arrivalPos="501.31" arrivalSpeed="20.10" duration="97.00" routeLength="994.98" waitingTime="34.00" waitingCount="1" stopTime="0.00" timeLoss="47.14" rerouteNo="0" devices="tripinfo_NS.6 routing_NS.6" vType="car" speedFactor="1.01" vaporized=""/>
    <tripinfo id="SN.8" depart="82.00" departLane="-E3_1" departPos="5.10" departSpeed="20.12" departDelay="0.00" arrival="171.00" arrivalLane="-E1_1" arrivalPos="498.92" arrivalSpeed="22.37" duration="89.00" routeLength="995.07" waitingTime="28.00" waitingCount="1" stopTime="0.00" timeLoss="44.09" rerouteNo="0" devices="tripinfo_SN.8 routing_SN.8" vType="car" speedFactor="1.11" vaporized=""/>
    <tripinfo id="SN.cv.4" depart="66.00" departLane="-E3_1" departPos="5.10" departSpeed="18.36" departDelay="0.00" arrival="173.00" arrivalLane="-E1_0" arrivalPos="498.92" arrivalSpeed="18.30" duration="107.00" routeLength="995.07" waitingTime="40.00" waitingCount="1" stopTime="0.00" timeLoss="52.05" rerouteNo="0" devices="tripinfo_SN.cv.4 routing_SN.cv.4" vType="cv" speedFactor="0.91" vaporized=""/>
    <tripinfo id="NS.8" depart="86.00" departLane="E1_2" departPos="5.10" departSpeed="19.99" departDelay="0.00" arrival="173.00" arrivalLane="E3_1" arrivalPos="501.31" arrivalSpeed="19.99" duration="87.00" routeLength="994.98" waitingTime="23.00" waitingCount="1" stopTime="0.00" timeLoss="36.63" rerouteNo="0" devices="tripinfo_NS.8 routing_NS.8" vType="car" speedFactor="0.99" vaporized=""/>
    <tripinfo id="NS.7" depart="85.00" departLane="E1_1" departPos="5.10" departSpeed="18.70" departDelay="0.00" arrival="175.00" arrivalLane="E3_0" arrivalPos="501.31" arrivalSpeed="18.67" duration="90.00" routeLength="994.98" waitingTime="23.00" waitingCount="1" stopTime="0.00" timeLoss="36.01" rerouteNo="0" devices="tripinfo_NS.7 routing_NS.7" vType="car" speedFactor="0.93" vaporized=""/>
    <tripinfo id="SN.9" depart="86.00" departLane="-E3_1" departPos="5.10" departSpeed="19.14" departDelay="0.00" arrival="176.00" arrivalLane="-E1_1" arrivalPos="498.92" arrivalSpeed="19.13" duration="90.00" routeLength="995.07" waitingTime="23.00" waitingCount="1" stopTime="0.00" timeLoss="37.48" rerouteNo="0" devices="tripinfo_SN.9 routing_SN.9" vType="car" speedFactor="0.95" vaporized=""/>
    <tripinfo id="NS.cv.7" depart="96.00" departLane="E1_1" departPos="5.10" departSpeed="19.51" departDelay="0.00" arrival="176.00" arrivalLane="E3_1" arrivalPos="501.31" arrivalSpeed="19.41" duration="80.00" routeLength="994.98" waitingTime="14.00" waitingCount="1" stopTime="0.00" timeLoss="28.70" rerouteNo="0" devices="tripinfo_NS.cv.7 routing_NS.cv.7" vType="cv" speedFactor="0.97" vaporized=""/>