<?xml version="1.0" encoding="UTF-8"?>

<!-- generated on 2023-01-30 11:11:22 by Eclipse SUMO sumo Version 1.13.0
<configuration xmlns:xsi="http://www.w3.org/2001/XMLSchema-instance" xsi:noNamespaceSchemaLocation="http://sumo.dlr.de/xsd/sumoConfiguration.xsd">

    <input>
        <net-file value="data/Eastway-Central.net.xml"/>
        <route-files value="data/cav80.rou.xml"/>
        <additional-files value="data/Eastway-Central.add.xml"/>
    </input>

    <output>
        <tripinfo-output value="result\2023-01-30-11-01-19\31_tripinfo.xml"/>
    </output>

    <report>
        <no-warnings value="true"/>
        <no-step-log value="true"/>
    </report>

    <traci_server>
        <remote-port value="51902"/>
    </traci_server>

    <random_number>
        <seed value="30"/>
    </random_number>

</configuration>
-->

<tripinfos xmlns:xsi="http://www.w3.org/2001/XMLSchema-instance" xsi:noNamespaceSchemaLocation="http://sumo.dlr.de/xsd/tripinfo_file.xsd">
    <tripinfo id="BNS.0" depart="0.00" departLane="E1_1" departPos="12.10" departSpeed="20.12" departDelay="0.00" arrival="50.00" arrivalLane="E3_0" arrivalPos="501.31" arrivalSpeed="20.12" duration="50.00" routeLength="987.98" waitingTime="0.00" waitingCount="0" stopTime="0.00" timeLoss="0.19" rerouteNo="0" devices="tripinfo_BNS.0 routing_BNS.0" vType="bus" speedFactor="1.00" vaporized=""/>
    <tripinfo id="NS.0" depart="4.00" departLane="E1_1" departPos="5.10" departSpeed="20.25" departDelay="0.00" arrival="54.00" arrivalLane="E3_1" arrivalPos="501.31" arrivalSpeed="20.25" duration="50.00" routeLength="994.98" waitingTime="0.00" waitingCount="0" stopTime="0.00" timeLoss="0.55" rerouteNo="0" devices="tripinfo_NS.0 routing_NS.0" vType="car" speedFactor="1.01" vaporized=""/>
    <tripinfo id="NS.cv.0" depart="1.00" departLane="E1_2" departPos="5.10" departSpeed="19.02" departDelay="0.00" arrival="55.00" arrivalLane="E3_0" arrivalPos="501.31" arrivalSpeed="19.01" duration="54.00" routeLength="994.98" waitingTime="0.00" waitingCount="0" stopTime="0.00" timeLoss="1.08" rerouteNo="0" devices="tripinfo_NS.cv.0 routing_NS.cv.0" vType="cv" speedFactor="0.95" vaporized=""/>
    <tripinfo id="SN.cv.1" depart="6.00" departLane="-E3_2" departPos="5.10" departSpeed="20.15" departDelay="0.00" arrival="56.00" arrivalLane="-E1_0" arrivalPos="498.92" arrivalSpeed="20.15" duration="50.00" routeLength="995.07" waitingTime="0.00" waitingCount="0" stopTime="0.00" timeLoss="0.17" rerouteNo="0" devices="tripinfo_SN.cv.1 routing_SN.cv.1" vType="cv" speedFactor="1.00" vaporized=""/>
    <tripinfo id="NS.cv.2" depart="7.00" departLane="E1_2" departPos="5.10" departSpeed="21.62" departDelay="0.00" arrival="57.00" arrivalLane="E3_1" arrivalPos="501.31" arrivalSpeed="21.30" duration="50.00" routeLength="994.98" waitingTime="0.00" waitingCount="0" stopTime="0.00" timeLoss="3.17" rerouteNo="0" devices="tripinfo_NS.cv.2 routing_NS.cv.2" vType="cv" speedFactor="1.07" vaporized=""/>
    <tripinfo id="SE.cv.0" depart="1.00" departLane="-E3_0" departPos="5.10" departSpeed="23.61" departDelay="0.00" arrival="58.00" arrivalLane="E2_0" arrivalPos="508.36" arrivalSpeed="18.37" duration="57.00" routeLength="1004.51" waitingTime="0.00" waitingCount="0" stopTime="0.00" timeLoss="7.82" rerouteNo="0" devices="tripinfo_SE.cv.0 routing_SE.cv.0" vType="cv" speedFactor="1.17" vaporized=""/>
    <tripinfo id="NS.cv.1" depart="6.00" departLane="E1_1" departPos="5.10" departSpeed="19.62" departDelay="0.00" arrival="59.00" arrivalLane="E3_0" arrivalPos="501.31" arrivalSpeed="19.56" duration="53.00" routeLength="994.98" waitingTime="0.00" waitingCount="0" stopTime="0.00" timeLoss="1.30" rerouteNo="0" devices="tripinfo_NS.cv.1 routing_NS.cv.1" vType="cv" speedFactor="0.98" vaporized=""/>
    <tripinfo id="SN.cv.2" depart="8.00" departLane="-E3_1" departPos="5.10" departSpeed="20.55" departDelay="0.00" arrival="60.00" arrivalLane="-E1_0" arrivalPos="498.92" arrivalSpeed="20.50" duration="52.00" routeLength="995.07" waitingTime="0.00" waitingCount="0" stopTime="0.00" timeLoss="3.19" rerouteNo="0" devices="tripinfo_SN.cv.2 routing_SN.cv.2" vType="cv" speedFactor="1.02" vaporized=""/>
    <tripinfo id="NS.cv.4" depart="12.00" departLane="E1_2" departPos="5.10" departSpeed="21.98" departDelay="0.00" arrival="60.00" arrivalLane="E3_1" arrivalPos="501.31" arrivalSpeed="21.72" duration="48.00" routeLength="994.98" waitingTime="0.00" waitingCount="0" stopTime="0.00" timeLoss="1.75" rerouteNo="0" devices="tripinfo_NS.cv.4 routing_NS.cv.4" vType="cv" speedFactor="1.09" vaporized=""/>
    <tripinfo id="NS.cv.3" depart="9.00" departLane="E1_1" departPos="5.10" departSpeed="19.35" departDelay="0.00" arrival="62.00" arrivalLane="E3_0" arrivalPos="501.31" arrivalSpeed="19.27" duration="53.00" routeLength="994.98" waitingTime="0.00" waitingCount="0" stopTime="0.00" timeLoss="1.45" rerouteNo="0" devices="tripinfo_NS.cv.3 routing_NS.cv.3" vType="cv" speedFactor="0.96" vaporized=""/>
    <tripinfo id="SN.cv.3" depart="13.00" departLane="-E3_1" departPos="5.10" departSpeed="20.25" departDelay="0.00" arrival="65.00" arrivalLane="-E1_1" arrivalPos="498.92" arrivalSpeed="20.25" duration="52.00" routeLength="995.07" waitingTime="0.00" waitingCount="0" stopTime="0.00" timeLoss="2.43" rerouteNo="0" devices="tripinfo_SN.cv.3 routing_SN.cv.3" vType="cv" speedFactor="1.01" vaporized=""/>
    <tripinfo id="SN.cv.0" depart="5.00" departLane="-E3_1" departPos="5.10" departSpeed="15.96" departDelay="0.00" arrival="68.00" arrivalLane="-E1_0" arrivalPos="498.92" arrivalSpeed="15.96" duration="63.00" routeLength="995.07" waitingTime="0.00" waitingCount="0" stopTime="0.00" timeLoss="0.15" rerouteNo="0" devices="tripinfo_SN.cv.0 routing_SN.cv.0" vType="cv" speedFactor="0.79" vaporized=""/>
    <tripinfo id="SN.0" depart="16.00" departLane="-E3_1" departPos="5.10" departSpeed="20.23" departDelay="0.00" arrival="68.00" arrivalLane="-E1_1" arrivalPos="498.92" arrivalSpeed="20.11" duration="52.00" routeLength="995.07" waitingTime="0.00" waitingCount="0" stopTime="0.00" timeLoss="2.78" rerouteNo="0" devices="tripinfo_SN.0 routing_SN.0" vType="car" speedFactor="1.01" vaporized=""/>
    <tripinfo id="WS.cv.0" depart="1.00" departLane="E0_0" departPos="5.10" departSpeed="14.04" departDelay="0.00" arrival="70.00" arrivalLane="E3_0" arrivalPos="501.31" arrivalSpeed="18.05" duration="69.00" routeLength="995.54" waitingTime="0.00" waitingCount="0" stopTime="0.00" timeLoss="5.56" rerouteNo="0" devices="tripinfo_WS.cv.0 routing_WS.cv.0" vType="cv" speedFactor="0.90" vaporized=""/>
    <tripinfo id="SN.1" depart="17.00" departLane="-E3_2" departPos="5.10" departSpeed="19.98" departDelay="0.00" arrival="71.00" arrivalLane="-E1_0" arrivalPos="498.92" arrivalSpeed="19.80" duration="54.00" routeLength="995.07" waitingTime="0.00" waitingCount="0" stopTime="0.00" timeLoss="3.97" rerouteNo="0" devices="tripinfo_SN.1 routing_SN.1" vType="car" speedFactor="0.99" vaporized=""/>
    <tripinfo id="SN.cv.5" depart="18.00" departLane="-E3_2" departPos="5.10" departSpeed="17.28" departDelay="0.00" arrival="73.00" arrivalLane="-E1_1" arrivalPos="498.92" arrivalSpeed="20.80" duration="55.00" routeLength="995.07" waitingTime="0.00" waitingCount="0" stopTime="0.00" timeLoss="7.26" rerouteNo="0" devices="tripinfo_SN.cv.5 routing_SN.cv.5" vType="cv" speedFactor="1.04" vaporized=""/>
    <tripinfo id="SW.cv.0" depart="0.00" departLane="-E3_3" departPos="5.10" departSpeed="20.58" departDelay="0.00" arrival="74.00" arrivalLane="-E0_0" arrivalPos="500.03" arrivalSpeed="16.01" duration="74.00" routeLength="996.18" waitingTime="6.00" waitingCount="1" stopTime="0.00" timeLoss="17.90" rerouteNo="0" devices="tripinfo_SW.cv.0 routing_SW.cv.0" vType="cv" speedFactor="1.02" vaporized=""/>
    <tripinfo id="SE.cv.1" depart="6.00" departLane="-E3_0" departPos="5.10" departSpeed="20.69" departDelay="0.00" arrival="74.00" arrivalLane="E2_0" arrivalPos="508.36" arrivalSpeed="16.10" duration="68.00" routeLength="1004.51" waitingTime="0.00" waitingCount="0" stopTime="0.00" timeLoss="12.32" rerouteNo="0" devices="tripinfo_SE.cv.1 routing_SE.cv.1" vType="cv" speedFactor="1.03" vaporized=""/>
    <tripinfo id="SN.cv.4" depart="17.00" departLane="-E3_1" departPos="5.10" departSpeed="16.75" departDelay="0.00" arrival="74.00" arrivalLane="-E1_0" arrivalPos="498.92" arrivalSpeed="18.29" duration="57.00" routeLength="995.07" waitingTime="0.00" waitingCount="0" stopTime="0.00" timeLoss="2.24" rerouteNo="0" devices="tripinfo_SN.cv.4 routing_SN.cv.4" vType="cv" speedFactor="0.92" vaporized=""/>
    <tripinfo id="SN.cv.6" depart="21.00" departLane="-E3_1" departPos="5.10" departSpeed="23.37" departDelay="0.00" arrival="75.00" arrivalLane="-E1_1" arrivalPos="498.92" arrivalSpeed="21.93" duration="54.00" routeLength="995.07" waitingTime="0.00" waitingCount="0" stopTime="0.00" timeLoss="10.96" rerouteNo="0" devices="tripinfo_SN.cv.6 routing_SN.cv.6" vType="cv" speedFactor="1.16" vaporized=""/>
    <tripinfo id="NS.1" depart="16.00" departLane="E1_1" departPos="5.10" departSpeed="22.31" departDelay="0.00" arrival="76.00" arrivalLane="E3_0" arrivalPos="501.31" arrivalSpeed="22.29" duration="60.00" routeLength="994.98" waitingTime="2.00" waitingCount="1" stopTime="0.00" timeLoss="15.37" rerouteNo="0" devices="tripinfo_NS.1 routing_NS.1" vType="car" speedFactor="1.11" vaporized=""/>
    <tripinfo id="NS.cv.5" depart="28.00" departLane="E1_2" departPos="5.10" departSpeed="20.50" departDelay="0.00" arrival="80.00" arrivalLane="E3_1" arrivalPos="501.31" arrivalSpeed="20.50" duration="52.00" routeLength="994.98" waitingTime="0.00" waitingCount="0" stopTime="0.00" timeLoss="3.16" rerouteNo="0" devices="tripinfo_NS.cv.5 routing_NS.cv.5" vType="cv" speedFactor="1.02" vaporized=""/>
    <tripinfo id="NS.2" depart="23.00" departLane="E1_2" departPos="5.10" departSpeed="17.83" departDelay="0.00" arrival="81.00" arrivalLane="E3_0" arrivalPos="501.31" arrivalSpeed="17.83" duration="58.00" routeLength="994.98" waitingTime="0.00" waitingCount="0" stopTime="0.00" timeLoss="2.22" rerouteNo="0" devices="tripinfo_NS.2 routing_NS.2" vType="car" speedFactor="0.89" vaporized=""/>
    <tripinfo id="NS.cv.6" depart="32.00" departLane="E1_2" departPos="5.10" departSpeed="22.83" departDelay="0.00" arrival="82.00" arrivalLane="E3_1" arrivalPos="501.31" arrivalSpeed="21.91" duration="50.00" routeLength="994.98" waitingTime="0.00" waitingCount="0" stopTime="0.00" timeLoss="6.24" rerouteNo="0" devices="tripinfo_NS.cv.6 routing_NS.cv.6" vType="cv" speedFactor="1.13" vaporized=""/>
    <tripinfo id="NS.3" depart="28.00" departLane="E1_1" departPos="5.10" departSpeed="17.95" departDelay="0.00" arrival="85.00" arrivalLane="E3_0" arrivalPos="501.31" arrivalSpeed="17.92" duration="57.00" routeLength="994.98" waitingTime="0.00" waitingCount="0" stopTime="0.00" timeLoss="1.56" rerouteNo="0" devices="tripinfo_NS.3 routing_NS.3" vType="car" speedFactor="0.89" vaporized=""/>
    <tripinfo id="SN.cv.7" depart="30.00" departLane="-E3_1" departPos="5.10" departSpeed="18.45" departDelay="0.00" arrival="85.00" arrivalLane="-E1_0" arrivalPos="498.92" arrivalSpeed="18.45" duration="55.00" routeLength="995.07" waitingTime="0.00" waitingCount="0" stopTime="0.00" timeLoss="0.43" rerouteNo="0" devices="tripinfo_SN.cv.7 routing_SN.cv.7" vType="cv" speedFactor="0.92" vaporized=""/>
    <tripinfo id="SN.cv.8" depart="32.00" departLane="-E3_2" departPos="5.10" departSpeed="17.82" departDelay="0.00" arrival="90.00" arrivalLane="-E1_0" arrivalPos="498.92" arrivalSpeed="17.81" duration="58.00" routeLength="995.07" waitingTime="0.00" waitingCount="0" stopTime="0.00" timeLoss="1.95" rerouteNo="0" devices="tripinfo_SN.cv.8 routing_SN.cv.8" vType="cv" speedFactor="0.89" vaporized=""/>
    <tripinfo id="SE.cv.3" depart="32.00" departLane="-E3_0" departPos="5.10" departSpeed="22.77" departDelay="0.00" arrival="92.00" arrivalLane="E2_1" arrivalPos="508.36" arrivalSpeed="17.71" duration="60.00" routeLength="1004.51" waitingTime="0.00" waitingCount="0" stopTime="0.00" timeLoss="8.77" rerouteNo="0" devices="tripinfo_SE.cv.3 routing_SE.cv.3" vType="cv" speedFactor="1.13" vaporized=""/>
    <tripinfo id="SE.cv.2" depart="24.00" departLane="-E3_0" departPos="5.10" departSpeed="18.53" departDelay="0.00" arrival="93.00" arrivalLane="E2_0" arrivalPos="508.36" arrivalSpeed="14.42" duration="69.00" routeLength="1004.51" waitingTime="0.00" waitingCount="0" stopTime="0.00" timeLoss="6.29" rerouteNo="0" devices="tripinfo_SE.cv.2 routing_SE.cv.2" vType="cv" speedFactor="0.92" vaporized=""/>
    <tripinfo id="ES.cv.1" depart="9.00" departLane="-E2_3" departPos="5.10" departSpeed="15.72" departDelay="0.00" arrival="95.00" arrivalLane="E3_1" arrivalPos="501.31" arrivalSpeed="20.21" duration="86.00" routeLength="1002.88" waitingTime="17.00" waitingCount="1" stopTime="0.00" timeLoss="29.05" rerouteNo="0" devices="tripinfo_ES.cv.1 routing_ES.cv.1" vType="cv" speedFactor="1.00" vaporized=""/>
    <tripinfo id="WN.cv.0" depart="10.00" departLane="E0_2" departPos="5.10" departSpeed="16.50" departDelay="0.00" arrival="95.00" arrivalLane="-E1_0" arrivalPos="498.92" arrivalSpeed="21.16" duration="85.00" routeLength="993.15" waitingTime="18.00" waitingCount="1" stopTime="0.00" timeLoss="30.58" rerouteNo="0" devices="tripinfo_WN.cv.0 routing_WN.cv.0" vType="cv" speedFactor="1.05" vaporized=""/>
    <tripinfo id="WN.cv.1" depart="16.00" departLane="E0_3" departPos="5.10" departSpeed="15.60" departDelay="0.00" arrival="95.00" arrivalLane="-E1_1" arrivalPos="498.92" arrivalSpeed="20.06" duration="79.00" routeLength="993.15" waitingTime="11.00" waitingCount="1" stopTime="0.00" timeLoss="22.23" rerouteNo="0" devices="tripinfo_WN.cv.1 routing_WN.cv.1" vType="cv" speedFactor="1.00" vaporized=""/>
    <tripinfo id="ES.cv.0" depart="7.00" departLane="-E2_2" departPos="5.10" departSpeed="15.29" departDelay="0.00" arrival="96.00" arrivalLane="E3_0" arrivalPos="501.31" arrivalSpeed="19.65" duration="89.00" routeLength="1002.88" waitingTime="19.00" waitingCount="1" stopTime="0.00" timeLoss="30.05" rerouteNo="0" devices="tripinfo_ES.cv.0 routing_ES.cv.0" vType="cv" speedFactor="0.98" vaporized=""/>
    <tripinfo id="WN.0" depart="28.00" departLane="E0_3" departPos="5.10" departSpeed="13.62" departDelay="0.00" arrival="101.00" arrivalLane="-E1_0" arrivalPos="498.92" arrivalSpeed="17.51" duration="73.00" routeLength="993.15" waitingTime="0.00" waitingCount="0" stopTime="0.00" timeLoss="7.38" rerouteNo="0" devices="tripinfo_WN.0 routing_WN.0" vType="car" speedFactor="0.87" vaporized=""/>
    <tripinfo id="SE.cv.4" depart="36.00" departLane="-E3_0" departPos="5.10" departSpeed="17.89" departDelay="0.00" arrival="107.00" arrivalLane="E2_0" arrivalPos="508.36" arrivalSpeed="13.92" duration="71.00" routeLength="1004.51" waitingTime="0.00" waitingCount="0" stopTime="0.00" timeLoss="6.17" rerouteNo="0" devices="tripinfo_SE.cv.4 routing_SE.cv.4" vType="cv" speedFactor="0.89" vaporized=""/>
    <tripinfo id="SE.cv.5" depart="39.00" departLane="-E3_0" departPos="5.10" departSpeed="19.60" departDelay="0.00" arrival="107.00" arrivalLane="E2_1" arrivalPos="508.36" arrivalSpeed="15.25" duration="68.00" routeLength="1004.51" waitingTime="0.00" waitingCount="0" stopTime="0.00" timeLoss="8.95" rerouteNo="0" devices="tripinfo_SE.cv.5 routing_SE.cv.5" vType="cv" speedFactor="0.97" vaporized=""/>
    <tripinfo id="WS.cv.1" depart="19.00" departLane="E0_0" departPos="5.10" departSpeed="14.65" departDelay="0.00" arrival="109.00" arrivalLane="E3_0" arrivalPos="501.31" arrivalSpeed="18.83" duration="90.00" routeLength="995.54" waitingTime="17.00" waitingCount="1" stopTime="0.00" timeLoss="29.14" rerouteNo="0" devices="tripinfo_WS.cv.1 routing_WS.cv.1" vType="cv" speedFactor="0.94" vaporized=""/>
    <tripinfo id="WS.0" depart="25.00" departLane="E0_0" departPos="5.10" departSpeed="14.63" departDelay="0.00" arrival="112.00" arrivalLane="E3_1" arrivalPos="501.31" arrivalSpeed="18.80" duration="87.00" routeLength="995.54" waitingTime="13.00" waitingCount="1" stopTime="0.00" timeLoss="26.38" rerouteNo="0" devices="tripinfo_WS.0 routing_WS.0" vType="car" speedFactor="0.93" vaporized=""/>
    <tripinfo id="EW.cv.1" depart="14.00" departLane="-E2_1" departPos="5.10" departSpeed="15.45" departDelay="0.00" arrival="113.00" arrivalLane="-E0_0" arrivalPos="500.03" arrivalSpeed="15.45" duration="99.00" routeLength="1001.60" waitingTime="23.00" waitingCount="1" stopTime="0.00" timeLoss="33.44" rerouteNo="0" devices="tripinfo_EW.cv.1 routing_EW.cv.1" vType="cv" speedFactor="0.99" vaporized=""/>
    <tripinfo id="WE.cv.0" depart="3.00" departLane="E0_1" departPos="5.10" departSpeed="14.03" departDelay="0.00" arrival="115.00" arrivalLane="E2_1" arrivalPos="508.36" arrivalSpeed="14.03" duration="112.00" routeLength="1002.59" waitingTime="29.00" waitingCount="1" stopTime="0.00" timeLoss="40.52" rerouteNo="0" devices="tripinfo_WE.cv.0 routing_WE.cv.0" vType="cv" speedFactor="0.90" vaporized=""/>
    <tripinfo id="WE.0" depart="7.00" departLane="E0_0" departPos="5.10" departSpeed="14.23" departDelay="0.00" arrival="115.00" arrivalLane="E2_0" arrivalPos="508.36" arrivalSpeed="14.23" duration="108.00" routeLength="1002.59" waitingTime="26.00" waitingCount="1" stopTime="0.00" timeLoss="37.05" rerouteNo="0" devices="tripinfo_WE.0 routing_WE.0" vType="car" speedFactor="0.91" vaporized=""/>
    <tripinfo id="WS.cv.2" depart="44.00" departLane="E0_0" departPos="5.10" departSpeed="15.69" departDelay="0.00" arrival="115.00" arrivalLane="E3_1" arrivalPos="501.31" arrivalSpeed="19.86" duration="71.00" routeLength="995.54" waitingTime="0.00" waitingCount="0" stopTime="0.00" timeLoss="13.86" rerouteNo="0" devices="tripinfo_WS.cv.2 routing_WS.cv.2" vType="cv" speedFactor="1.00" vaporized=""/>
    <tripinfo id="EW.cv.3" depart="21.00" departLane="-E2_1" departPos="5.10" departSpeed="15.53" departDelay="0.00" arrival="116.00" arrivalLane="-E0_0" arrivalPos="500.03" arrivalSpeed="15.44" duration="95.00" routeLength="1001.60" waitingTime="18.00" waitingCount="1" stopTime="0.00" timeLoss="29.53" rerouteNo="0" devices="tripinfo_EW.cv.3 routing_EW.cv.3" vType="cv" speedFactor="0.99" vaporized=""/>
    <tripinfo id="WE.cv.1" depart="25.00" departLane="E0_1" departPos="5.10" departSpeed="16.82" departDelay="0.00" arrival="117.00" arrivalLane="E2_1" arrivalPos="508.36" arrivalSpeed="15.92" duration="92.00" routeLength="1002.59" waitingTime="15.00" waitingCount="1" stopTime="0.00" timeLoss="32.20" rerouteNo="0" devices="tripinfo_WE.cv.1 routing_WE.cv.1" vType="cv" speedFactor="1.07" vaporized=""/>
    <tripinfo id="EW.cv.4" depart="26.00" departLane="-E2_0" departPos="5.10" departSpeed="17.74" departDelay="0.00" arrival="117.00" arrivalLane="-E0_1" arrivalPos="500.03" arrivalSpeed="17.71" duration="91.00" routeLength="1001.60" waitingTime="17.00" waitingCount="1" stopTime="0.00" timeLoss="33.83" rerouteNo="0" devices="tripinfo_EW.cv.4 routing_EW.cv.4" vType="cv" speedFactor="1.13" vaporized=""/>
    <tripinfo id="WE.cv.2" depart="55.00" departLane="E0_0" departPos="5.10" departSpeed="18.90" departDelay="0.00" arrival="117.00" arrivalLane="E2_0" arrivalPos="508.36" arrivalSpeed="17.40" duration="62.00" routeLength="1002.59" waitingTime="0.00" waitingCount="0" stopTime="0.00" timeLoss="8.33" rerouteNo="0" devices="tripinfo_WE.cv.2 routing_WE.cv.2" vType="cv" speedFactor="1.21" vaporized=""/>
    <tripinfo id="EW.cv.0" depart="3.00" departLane="-E2_0" departPos="5.10" departSpeed="13.02" departDelay="0.00" arrival="119.00" arrivalLane="-E0_0" arrivalPos="500.03" arrivalSpeed="13.00" duration="116.00" routeLength="1001.60" waitingTime="28.00" waitingCount="1" stopTime="0.00" timeLoss="38.46" rerouteNo="0" devices="tripinfo_EW.cv.0 routing_EW.cv.0" vType="cv" speedFactor="0.83" vaporized=""/>
    <tripinfo id="WE.1" depart="55.00" departLane="E0_1" departPos="5.10" departSpeed="16.68" departDelay="0.00" arrival="119.00" arrivalLane="E2_0" arrivalPos="508.36" arrivalSpeed="16.37" duration="64.00" routeLength="1002.59" waitingTime="0.00" waitingCount="0" stopTime="0.00" timeLoss="3.84" rerouteNo="0" devices="tripinfo_WE.1 routing_WE.1" vType="car" speedFactor="1.07" vaporized=""/>
    <tripinfo id="WE.2" depart="62.00" departLane="E0_1" departPos="5.10" departSpeed="18.69" departDelay="0.00" arrival="120.00" arrivalLane="E2_1" arrivalPos="508.36" arrivalSpeed="18.42" duration="58.00" routeLength="1002.59" waitingTime="0.00" waitingCount="0" stopTime="0.00" timeLoss="4.11" rerouteNo="0" devices="tripinfo_WE.2 routing_WE.2" vType="car" speedFactor="1.19" vaporized=""/>
    <tripinfo id="EW.cv.2" depart="16.00" departLane="-E2_0" departPos="5.10" departSpeed="13.53" departDelay="0.00" arrival="122.00" arrivalLane="-E0_1" arrivalPos="500.03" arrivalSpeed="13.53" duration="106.00" routeLength="1001.60" waitingTime="18.00" waitingCount="1" stopTime="0.00" timeLoss="31.02" rerouteNo="0" devices="tripinfo_EW.cv.2 routing_EW.cv.2" vType="cv" speedFactor="0.86" vaporized=""/>
    <tripinfo id="NE.cv.0" depart="12.00" departLane="E1_3" departPos="5.10" departSpeed="19.77" departDelay="0.00" arrival="130.00" arrivalLane="E2_0" arrivalPos="508.36" arrivalSpeed="15.38" duration="118.00" routeLength="1002.03" waitingTime="49.00" waitingCount="1" stopTime="0.00" timeLoss="59.96" rerouteNo="0" devices="tripinfo_NE.cv.0 routing_NE.cv.0" vType="cv" speedFactor="0.98" vaporized=""/>
    <tripinfo id="SN.cv.9" depart="33.00" departLane="-E3_1" departPos="5.10" departSpeed="21.98" departDelay="0.00" arrival="131.00" arrivalLane="-E1_0" arrivalPos="498.92" arrivalSpeed="21.98" duration="98.00" routeLength="995.07" waitingTime="36.00" waitingCount="1" stopTime="0.00" timeLoss="52.72" rerouteNo="0" devices="tripinfo_SN.cv.9 routing_SN.cv.9" vType="cv" speedFactor="1.09" vaporized=""/>
    <tripinfo id="SW.cv.1" depart="19.00" departLane="-E3_3" departPos="5.10" departSpeed="18.34" departDelay="0.00" arrival="132.00" arrivalLane="-E0_0" arrivalPos="500.03" arrivalSpeed="14.27" duration="113.00" routeLength="996.18" waitingTime="40.00" waitingCount="1" stopTime="0.00" timeLoss="50.61" rerouteNo="0" devices="tripinfo_SW.cv.1 routing_SW.cv.1" vType="cv" speedFactor="0.91" vaporized=""/>
    <tripinfo id="NW.cv.1" depart="60.00" departLane="E1_0" departPos="5.10" departSpeed="18.51" departDelay="0.00" arrival="134.00" arrivalLane="-E0_0" arrivalPos="500.03" arrivalSpeed="16.23" duration="74.00" routeLength="993.70" waitingTime="0.00" waitingCount="0" stopTime="0.00" timeLoss="21.21" rerouteNo="0" devices="tripinfo_NW.cv.1 routing_NW.cv.1" vType="cv" speedFactor="1.07" vaporized=""/>
    <tripinfo id="SN.cv.10" depart="37.00" departLane="-E3_2" departPos="5.10" departSpeed="19.30" departDelay="0.00" arrival="135.00" arrivalLane="-E1_0" arrivalPos="498.92" arrivalSpeed="19.26" duration="98.00" routeLength="995.07" waitingTime="33.00" waitingCount="1" stopTime="0.00" timeLoss="45.50" rerouteNo="0" devices="tripinfo_SN.cv.10 routing_SN.cv.10" vType="cv" speedFactor="0.96" vaporized=""/>
    <tripinfo id="NS.cv.8" depart="40.00" departLane="E1_1" departPos="5.10" departSpeed="21.56" departDelay="0.00" arrival="135.00" arrivalLane="E3_0" arrivalPos="501.31" arrivalSpeed="21.56" duration="95.00" routeLength="994.98" waitingTime="35.00" waitingCount="1" stopTime="0.00" timeLoss="48.31" rerouteNo="0" devices="tripinfo_NS.cv.8 routing_NS.cv.8" vType="cv" speedFactor="1.07" vaporized=""/>
    <tripinfo id="NW.cv.0" depart="58.00" departLane="E1_0" departPos="5.10" departSpeed="16.83" departDelay="0.00" arrival="135.00" arrivalLane="-E0_0" arrivalPos="500.03" arrivalSpeed="13.09" duration="77.00" routeLength="993.70" waitingTime="0.00" waitingCount="0" stopTime="0.00" timeLoss="9.31" rerouteNo="0" devices="tripinfo_NW.cv.0 routing_NW.cv.0" vType="cv" speedFactor="0.84" vaporized=""/>
    <tripinfo id="SN.2" depart="39.00" departLane="-E3_2" departPos="5.10" departSpeed="19.90" departDelay="0.00" arrival="136.00" arrivalLane="-E1_1" arrivalPos="498.92" arrivalSpeed="19.90" duration="97.00" routeLength="995.07" waitingTime="32.00" waitingCount="1" stopTime="0.00" timeLoss="46.64" rerouteNo="0" devices="tripinfo_SN.2 routing_SN.2" vType="car" speedFactor="0.99" vaporized=""/>
    <tripinfo id="SN.cv.11" depart="38.00" departLane="-E3_1" departPos="5.10" departSpeed="21.51" departDelay="0.00" arrival="137.00" arrivalLane="-E1_0" arrivalPos="498.92" arrivalSpeed="20.50" duration="99.00" routeLength="995.07" waitingTime="34.00" waitingCount="1" stopTime="0.00" timeLoss="52.03" rerouteNo="0" devices="tripinfo_SN.cv.11 routing_SN.cv.11" vType="cv" speedFactor="1.07" vaporized=""/>
    <tripinfo id="NS.4" depart="40.00" departLane="E1_2" departPos="5.10" departSpeed="22.61" departDelay="0.00" arrival="137.00" arrivalLane="E3_1" arrivalPos="501.31" arrivalSpeed="22.60" duration="97.00" routeLength="994.98" waitingTime="38.00" waitingCount="1" stopTime="0.00" timeLoss="52.89" rerouteNo="0" devices="tripinfo_NS.4 routing_NS.4" vType="car" speedFactor="1.12" vaporized=""/>
    <tripinfo id="SE.cv.6" depart="66.00" departLane="-E3_0" departPos="5.10" departSpeed="17.80" departDelay="0.00" arrival="137.00" arrivalLane="E2_0" arrivalPos="508.36" arrivalSpeed="13.85" duration="71.00" routeLength="1004.51" waitingTime="0.00" waitingCount="0" stopTime="0.00" timeLoss="6.29" rerouteNo="0" devices="tripinfo_SE.cv.6 routing_SE.cv.6" vType="cv" speedFactor="0.88" vaporized=""/>
    <tripinfo id="NS.cv.7" depart="35.00" departLane="E1_1" departPos="5.10" departSpeed="19.08" departDelay="0.00" arrival="138.00" arrivalLane="E3_0" arrivalPos="501.31" arrivalSpeed="19.01" duration="103.00" routeLength="994.98" waitingTime="38.00" waitingCount="1" stopTime="0.00" timeLoss="50.30" rerouteNo="0" devices="tripinfo_NS.cv.7 routing_NS.cv.7" vType="cv" speedFactor="0.95" vaporized=""/>
    <tripinfo id="SW.cv.2" depart="41.00" departLane="-E3_3" departPos="5.10" departSpeed="17.13" departDelay="0.00" arrival="138.00" arrivalLane="-E0_0" arrivalPos="500.03" arrivalSpeed="13.28" duration="97.00" routeLength="996.18" waitingTime="18.00" waitingCount="1" stopTime="0.00" timeLoss="30.20" rerouteNo="0" devices="tripinfo_SW.cv.2 routing_SW.cv.2" vType="cv" speedFactor="0.85" vaporized=""/>
    <tripinfo id="SN.cv.12" depart="45.00" departLane="-E3_1" departPos="5.10" departSpeed="24.25" departDelay="0.00" arrival="138.00" arrivalLane="-E1_1" arrivalPos="498.92" arrivalSpeed="22.16" duration="93.00" routeLength="995.07" waitingTime="28.00" waitingCount="1" stopTime="0.00" timeLoss="51.35" rerouteNo="0" devices="tripinfo_SN.cv.12 routing_SN.cv.12" vType="cv" speedFactor="1.21" vaporized=""/>
    <tripinfo id="SN.cv.13" depart="47.00" departLane="-E3_1" departPos="5.10" departSpeed="20.69" departDelay="0.00" arrival="139.00" arrivalLane="-E1_0" arrivalPos="498.92" arrivalSpeed="20.03" duration="92.00" routeLength="995.07" waitingTime="26.00" waitingCount="1" stopTime="0.00" timeLoss="43.36" rerouteNo="0" devices="tripinfo_SN.cv.13 routing_SN.cv.13" vType="cv" speedFactor="1.03" vaporized=""/>
    <tripinfo id="SW.cv.3" depart="53.00" departLane="-E3_3" departPos="5.10" departSpeed="20.37" departDelay="0.00" arrival="139.00" arrivalLane="-E0_1" arrivalPos="500.03" arrivalSpeed="15.82" duration="86.00" routeLength="996.18" waitingTime="11.00" waitingCount="1" stopTime="0.00" timeLoss="29.11" rerouteNo="0" devices="tripinfo_SW.cv.3 routing_SW.cv.3" vType="cv" speedFactor="1.01" vaporized=""/>
    <tripinfo id="SN.cv.14" depart="48.00" departLane="-E3_2" departPos="5.10" departSpeed="22.14" departDelay="0.00" arrival="140.00" arrivalLane="-E1_1" arrivalPos="498.92" arrivalSpeed="21.30" duration="92.00" routeLength="995.07" waitingTime="28.00" waitingCount="1" stopTime="0.00" timeLoss="46.52" rerouteNo="0" devices="tripinfo_SN.cv.14 routing_SN.cv.14" vType="cv" speedFactor="1.10" vaporized=""/>
    <tripinfo id="NS.cv.10" depart="52.00" departLane="E1_1" departPos="5.10" departSpeed="18.92" departDelay="0.00" arrival="141.00" arrivalLane="E3_0" arrivalPos="501.31" arrivalSpeed="18.78" duration="89.00" routeLength="994.98" waitingTime="20.00" waitingCount="1" stopTime="0.00" timeLoss="35.72" rerouteNo="0" devices="tripinfo_NS.cv.10 routing_NS.cv.10" vType="cv" speedFactor="0.94" vaporized=""/>
    <tripinfo id="NS.cv.12" depart="59.00" departLane="E1_1" departPos="5.10" departSpeed="23.11" departDelay="0.00" arrival="141.00" arrivalLane="E3_1" arrivalPos="501.31" arrivalSpeed="22.96" duration="82.00" routeLength="994.98" waitingTime="18.00" waitingCount="1" stopTime="0.00" timeLoss="37.99" rerouteNo="0" devices="tripinfo_NS.cv.12 routing_NS.cv.12" vType="cv" speedFactor="1.15" vaporized=""/>
    <tripinfo id="NW.cv.2" depart="68.00" departLane="E1_0" departPos="5.10" departSpeed="19.63" departDelay="0.00" arrival="141.00" arrivalLane="-E0_0" arrivalPos="500.03" arrivalSpeed="15.13" duration="73.00" routeLength="993.70" waitingTime="0.00" waitingCount="0" stopTime="0.00" timeLoss="14.53" rerouteNo="0" devices="tripinfo_NW.cv.2 routing_NW.cv.2" vType="cv" speedFactor="0.98" vaporized=""/>
    <tripinfo id="NW.cv.3" depart="80.00" departLane="E1_0" departPos="5.10" departSpeed="22.74" departDelay="0.00" arrival="141.00" arrivalLane="-E0_1" arrivalPos="500.03" arrivalSpeed="17.19" duration="61.00" routeLength="993.70" waitingTime="0.00" waitingCount="0" stopTime="0.00" timeLoss="10.40" rerouteNo="0" devices="tripinfo_NW.cv.3 routing_NW.cv.3" vType="cv" speedFactor="1.13" vaporized=""/>
    <tripinfo id="SN.cv.17" depart="56.00" departLane="-E3_1" departPos="5.10" departSpeed="19.13" departDelay="0.00" arrival="142.00" arrivalLane="-E1_0" arrivalPos="498.92" arrivalSpeed="18.98" duration="86.00" routeLength="995.07" waitingTime="18.00" waitingCount="1" stopTime="0.00" timeLoss="33.31" rerouteNo="0" devices="tripinfo_SN.cv.17 routing_SN.cv.17" vType="cv" speedFactor="0.95" vaporized=""/>