<?xml version="1.0" encoding="UTF-8"?>

<!-- generated on 2023-01-30 11:02:02 by Eclipse SUMO sumo Version 1.13.0
<configuration xmlns:xsi="http://www.w3.org/2001/XMLSchema-instance" xsi:noNamespaceSchemaLocation="http://sumo.dlr.de/xsd/sumoConfiguration.xsd">

    <input>
        <net-file value="data/Eastway-Central.net.xml"/>
        <route-files value="data/cav80.rou.xml"/>
        <additional-files value="data/Eastway-Central.add.xml"/>
    </input>

    <output>
        <tripinfo-output value="result\2023-01-30-11-01-19\3_tripinfo.xml"/>
    </output>

    <report>
        <no-warnings value="true"/>
        <no-step-log value="true"/>
    </report>

    <traci_server>
        <remote-port value="51558"/>
    </traci_server>

    <random_number>
        <seed value="2"/>
    </random_number>

</configuration>
-->

<tripinfos xmlns:xsi="http://www.w3.org/2001/XMLSchema-instance" xsi:noNamespaceSchemaLocation="http://sumo.dlr.de/xsd/tripinfo_file.xsd">
    <tripinfo id="SN.cv.0" depart="0.00" departLane="-E3_1" departPos="5.10" departSpeed="20.26" departDelay="0.00" arrival="50.00" arrivalLane="-E1_0" arrivalPos="498.92" arrivalSpeed="20.26" duration="50.00" routeLength="995.07" waitingTime="0.00" waitingCount="0" stopTime="0.00" timeLoss="0.10" rerouteNo="0" devices="tripinfo_SN.cv.0 routing_SN.cv.0" vType="cv" speedFactor="1.01" vaporized=""/>
    <tripinfo id="BNS.0" depart="0.00" departLane="E1_2" departPos="12.10" departSpeed="20.12" departDelay="0.00" arrival="50.00" arrivalLane="E3_1" arrivalPos="501.31" arrivalSpeed="20.12" duration="50.00" routeLength="987.98" waitingTime="0.00" waitingCount="0" stopTime="0.00" timeLoss="0.19" rerouteNo="0" devices="tripinfo_BNS.0 routing_BNS.0" vType="bus" speedFactor="1.00" vaporized=""/>
    <tripinfo id="NS.0" depart="0.00" departLane="E1_1" departPos="5.10" departSpeed="19.59" departDelay="0.00" arrival="51.00" arrivalLane="E3_0" arrivalPos="501.31" arrivalSpeed="19.59" duration="51.00" routeLength="994.98" waitingTime="0.00" waitingCount="0" stopTime="0.00" timeLoss="0.09" rerouteNo="0" devices="tripinfo_NS.0 routing_NS.0" vType="car" speedFactor="0.97" vaporized=""/>
    <tripinfo id="SN.0" depart="4.00" departLane="-E3_2" departPos="5.10" departSpeed="19.21" departDelay="0.00" arrival="57.00" arrivalLane="-E1_0" arrivalPos="498.92" arrivalSpeed="19.21" duration="53.00" routeLength="995.07" waitingTime="0.00" waitingCount="0" stopTime="0.00" timeLoss="0.28" rerouteNo="0" devices="tripinfo_SN.0 routing_SN.0" vType="car" speedFactor="0.95" vaporized=""/>
    <tripinfo id="NS.cv.0" depart="3.00" departLane="E1_2" departPos="5.10" departSpeed="18.54" departDelay="0.00" arrival="58.00" arrivalLane="E3_0" arrivalPos="501.31" arrivalSpeed="18.54" duration="55.00" routeLength="994.98" waitingTime="0.00" waitingCount="0" stopTime="0.00" timeLoss="0.58" rerouteNo="0" devices="tripinfo_NS.cv.0 routing_NS.cv.0" vType="cv" speedFactor="0.92" vaporized=""/>
    <tripinfo id="SN.3" depart="12.00" departLane="-E3_2" departPos="5.10" departSpeed="21.78" departDelay="0.00" arrival="58.00" arrivalLane="-E1_1" arrivalPos="498.92" arrivalSpeed="21.78" duration="46.00" routeLength="995.07" waitingTime="0.00" waitingCount="0" stopTime="0.00" timeLoss="0.27" rerouteNo="0" devices="tripinfo_SN.3 routing_SN.3" vType="car" speedFactor="1.08" vaporized=""/>
    <tripinfo id="NS.cv.1" depart="13.00" departLane="E1_1" departPos="5.10" departSpeed="22.44" departDelay="0.00" arrival="58.00" arrivalLane="E3_1" arrivalPos="501.31" arrivalSpeed="22.43" duration="45.00" routeLength="994.98" waitingTime="0.00" waitingCount="0" stopTime="0.00" timeLoss="0.23" rerouteNo="0" devices="tripinfo_NS.cv.1 routing_NS.cv.1" vType="cv" speedFactor="1.12" vaporized=""/>
    <tripinfo id="SN.1" depart="5.00" departLane="-E3_1" departPos="5.10" departSpeed="18.17" departDelay="0.00" arrival="61.00" arrivalLane="-E1_0" arrivalPos="498.92" arrivalSpeed="18.16" duration="56.00" routeLength="995.07" waitingTime="0.00" waitingCount="0" stopTime="0.00" timeLoss="1.18" rerouteNo="0" devices="tripinfo_SN.1 routing_SN.1" vType="car" speedFactor="0.90" vaporized=""/>
    <tripinfo id="SN.cv.2" depart="14.00" departLane="-E3_1" departPos="5.10" departSpeed="20.80" departDelay="0.00" arrival="64.00" arrivalLane="-E1_1" arrivalPos="498.92" arrivalSpeed="20.80" duration="50.00" routeLength="995.07" waitingTime="0.00" waitingCount="0" stopTime="0.00" timeLoss="1.40" rerouteNo="0" devices="tripinfo_SN.cv.2 routing_SN.cv.2" vType="cv" speedFactor="1.03" vaporized=""/>
    <tripinfo id="NS.cv.2" depart="16.00" departLane="E1_1" departPos="5.10" departSpeed="19.75" departDelay="0.00" arrival="67.00" arrivalLane="E3_0" arrivalPos="501.31" arrivalSpeed="19.75" duration="51.00" routeLength="994.98" waitingTime="0.00" waitingCount="0" stopTime="0.00" timeLoss="0.17" rerouteNo="0" devices="tripinfo_NS.cv.2 routing_NS.cv.2" vType="cv" speedFactor="0.98" vaporized=""/>
    <tripinfo id="SN.2" depart="7.00" departLane="-E3_2" departPos="5.10" departSpeed="16.29" departDelay="0.00" arrival="69.00" arrivalLane="-E1_0" arrivalPos="498.92" arrivalSpeed="16.29" duration="62.00" routeLength="995.07" waitingTime="0.00" waitingCount="0" stopTime="0.00" timeLoss="0.56" rerouteNo="0" devices="tripinfo_SN.2 routing_SN.2" vType="car" speedFactor="0.81" vaporized=""/>
    <tripinfo id="SN.cv.1" depart="10.00" departLane="-E3_1" departPos="5.10" departSpeed="17.87" departDelay="0.00" arrival="69.00" arrivalLane="-E1_1" arrivalPos="498.92" arrivalSpeed="17.86" duration="59.00" routeLength="995.07" waitingTime="0.00" waitingCount="0" stopTime="0.00" timeLoss="3.27" rerouteNo="0" devices="tripinfo_SN.cv.1 routing_SN.cv.1" vType="cv" speedFactor="0.89" vaporized=""/>
    <tripinfo id="EN.cv.0" depart="6.00" departLane="-E2_0" departPos="5.10" departSpeed="16.10" departDelay="0.00" arrival="71.00" arrivalLane="-E1_1" arrivalPos="498.92" arrivalSpeed="19.65" duration="65.00" routeLength="1000.49" waitingTime="0.00" waitingCount="0" stopTime="0.00" timeLoss="9.66" rerouteNo="0" devices="tripinfo_EN.cv.0 routing_EN.cv.0" vType="cv" speedFactor="1.03" vaporized=""/>
    <tripinfo id="ES.cv.1" depart="13.00" departLane="-E2_3" departPos="5.10" departSpeed="15.40" departDelay="0.00" arrival="75.00" arrivalLane="E3_1" arrivalPos="501.31" arrivalSpeed="19.80" duration="62.00" routeLength="1002.88" waitingTime="0.00" waitingCount="0" stopTime="0.00" timeLoss="3.78" rerouteNo="0" devices="tripinfo_ES.cv.1 routing_ES.cv.1" vType="cv" speedFactor="0.98" vaporized=""/>
    <tripinfo id="ES.cv.0" depart="12.00" departLane="-E2_2" departPos="5.10" departSpeed="16.29" departDelay="0.00" arrival="76.00" arrivalLane="E3_0" arrivalPos="501.31" arrivalSpeed="20.24" duration="64.00" routeLength="1002.88" waitingTime="0.00" waitingCount="0" stopTime="0.00" timeLoss="8.86" rerouteNo="0" devices="tripinfo_ES.cv.0 routing_ES.cv.0" vType="cv" speedFactor="1.04" vaporized=""/>
    <tripinfo id="SE.0" depart="10.00" departLane="-E3_0" departPos="5.10" departSpeed="14.84" departDelay="0.00" arrival="84.00" arrivalLane="E2_1" arrivalPos="508.36" arrivalSpeed="16.34" duration="74.00" routeLength="1004.51" waitingTime="1.00" waitingCount="1" stopTime="0.00" timeLoss="19.09" rerouteNo="0" devices="tripinfo_SE.0 routing_SE.0" vType="car" speedFactor="1.04" vaporized=""/>
    <tripinfo id="SE.cv.0" depart="9.00" departLane="-E3_0" departPos="5.10" departSpeed="17.36" departDelay="0.00" arrival="88.00" arrivalLane="E2_0" arrivalPos="508.36" arrivalSpeed="13.50" duration="79.00" routeLength="1004.51" waitingTime="1.00" waitingCount="1" stopTime="0.00" timeLoss="11.87" rerouteNo="0" devices="tripinfo_SE.cv.0 routing_SE.cv.0" vType="cv" speedFactor="0.86" vaporized=""/>
    <tripinfo id="SE.cv.1" depart="11.00" departLane="-E3_0" departPos="5.10" departSpeed="9.68" departDelay="1.00" arrival="88.00" arrivalLane="E2_1" arrivalPos="508.36" arrivalSpeed="16.12" duration="77.00" routeLength="1004.51" waitingTime="1.00" waitingCount="1" stopTime="0.00" timeLoss="21.38" rerouteNo="0" devices="tripinfo_SE.cv.1 routing_SE.cv.1" vType="cv" speedFactor="1.03" vaporized=""/>
    <tripinfo id="WS.cv.0" depart="14.00" departLane="E0_0" departPos="5.10" departSpeed="15.73" departDelay="0.00" arrival="89.00" arrivalLane="E3_0" arrivalPos="501.31" arrivalSpeed="20.22" duration="75.00" routeLength="995.54" waitingTime="5.00" waitingCount="1" stopTime="0.00" timeLoss="18.72" rerouteNo="0" devices="tripinfo_WS.cv.0 routing_WS.cv.0" vType="cv" speedFactor="1.00" vaporized=""/>
    <tripinfo id="WE.cv.1" depart="17.00" departLane="E0_1" departPos="5.10" departSpeed="18.77" departDelay="0.00" arrival="90.00" arrivalLane="E2_1" arrivalPos="508.36" arrivalSpeed="17.84" duration="73.00" routeLength="1002.59" waitingTime="5.00" waitingCount="1" stopTime="0.00" timeLoss="19.35" rerouteNo="0" devices="tripinfo_WE.cv.1 routing_WE.cv.1" vType="cv" speedFactor="1.20" vaporized=""/>
    <tripinfo id="SE.cv.2" depart="12.00" departLane="-E3_0" departPos="5.10" departSpeed="1.61" departDelay="0.00" arrival="94.00" arrivalLane="E2_0" arrivalPos="508.36" arrivalSpeed="14.33" duration="82.00" routeLength="1004.51" waitingTime="0.00" waitingCount="0" stopTime="0.00" timeLoss="19.31" rerouteNo="0" devices="tripinfo_SE.cv.2 routing_SE.cv.2" vType="cv" speedFactor="0.92" vaporized=""/>
    <tripinfo id="WS.cv.1" depart="19.00" departLane="E0_0" departPos="5.10" departSpeed="15.07" departDelay="0.00" arrival="94.00" arrivalLane="E3_0" arrivalPos="501.31" arrivalSpeed="19.36" duration="75.00" routeLength="995.54" waitingTime="1.00" waitingCount="1" stopTime="0.00" timeLoss="15.51" rerouteNo="0" devices="tripinfo_WS.cv.1 routing_WS.cv.1" vType="cv" speedFactor="0.96" vaporized=""/>
    <tripinfo id="WE.0" depart="24.00" departLane="E0_1" departPos="5.10" departSpeed="15.76" departDelay="0.00" arrival="95.00" arrivalLane="E2_1" arrivalPos="508.36" arrivalSpeed="15.75" duration="71.00" routeLength="1002.59" waitingTime="0.00" waitingCount="0" stopTime="0.00" timeLoss="7.07" rerouteNo="0" devices="tripinfo_WE.0 routing_WE.0" vType="car" speedFactor="1.01" vaporized=""/>
    <tripinfo id="WS.cv.2" depart="23.00" departLane="E0_0" departPos="5.10" departSpeed="11.47" departDelay="0.00" arrival="97.00" arrivalLane="E3_0" arrivalPos="501.31" arrivalSpeed="22.36" duration="74.00" routeLength="995.54" waitingTime="0.00" waitingCount="0" stopTime="0.00" timeLoss="23.32" rerouteNo="0" devices="tripinfo_WS.cv.2 routing_WS.cv.2" vType="cv" speedFactor="1.13" vaporized=""/>
    <tripinfo id="WE.cv.4" depart="25.00" departLane="E0_0" departPos="5.10" departSpeed="12.74" departDelay="0.00" arrival="98.00" arrivalLane="E2_0" arrivalPos="508.36" arrivalSpeed="15.88" duration="73.00" routeLength="1002.59" waitingTime="0.00" waitingCount="0" stopTime="0.00" timeLoss="9.90" rerouteNo="0" devices="tripinfo_WE.cv.4 routing_WE.cv.4" vType="cv" speedFactor="1.02" vaporized=""/>
    <tripinfo id="WE.cv.5" depart="30.00" departLane="E0_1" departPos="5.10" departSpeed="16.35" departDelay="0.00" arrival="101.00" arrivalLane="E2_0" arrivalPos="508.36" arrivalSpeed="16.22" duration="71.00" routeLength="1002.59" waitingTime="0.00" waitingCount="0" stopTime="0.00" timeLoss="8.75" rerouteNo="0" devices="tripinfo_WE.cv.5 routing_WE.cv.5" vType="cv" speedFactor="1.04" vaporized=""/>
    <tripinfo id="EW.cv.0" depart="42.00" departLane="-E2_0" departPos="5.10" departSpeed="16.87" departDelay="0.00" arrival="102.00" arrivalLane="-E0_0" arrivalPos="500.03" arrivalSpeed="16.87" duration="60.00" routeLength="1001.60" waitingTime="0.00" waitingCount="0" stopTime="0.00" timeLoss="0.02" rerouteNo="0" devices="tripinfo_EW.cv.0 routing_EW.cv.0" vType="cv" speedFactor="1.08" vaporized=""/>
    <tripinfo id="WE.cv.3" depart="22.00" departLane="E0_0" departPos="5.10" departSpeed="14.81" departDelay="0.00" arrival="104.00" arrivalLane="E2_1" arrivalPos="508.36" arrivalSpeed="14.81" duration="82.00" routeLength="1002.59" waitingTime="0.00" waitingCount="0" stopTime="0.00" timeLoss="13.92" rerouteNo="0" devices="tripinfo_WE.cv.3 routing_WE.cv.3" vType="cv" speedFactor="0.95" vaporized=""/>
    <tripinfo id="WE.cv.0" depart="1.00" departLane="E0_0" departPos="5.10" departSpeed="11.32" departDelay="0.00" arrival="106.00" arrivalLane="E2_0" arrivalPos="508.36" arrivalSpeed="11.32" duration="105.00" routeLength="1002.59" waitingTime="6.00" waitingCount="1" stopTime="0.00" timeLoss="15.58" rerouteNo="0" devices="tripinfo_WE.cv.0 routing_WE.cv.0" vType="cv" speedFactor="0.72" vaporized=""/>
    <tripinfo id="WE.cv.6" depart="37.00" departLane="E0_0" departPos="5.10" departSpeed="16.08" departDelay="0.00" arrival="106.00" arrivalLane="E2_1" arrivalPos="508.36" arrivalSpeed="15.65" duration="69.00" routeLength="1002.59" waitingTime="0.00" waitingCount="0" stopTime="0.00" timeLoss="6.51" rerouteNo="0" devices="tripinfo_WE.cv.6 routing_WE.cv.6" vType="cv" speedFactor="1.03" vaporized=""/>
    <tripinfo id="EW.cv.1" depart="44.00" departLane="-E2_1" departPos="5.10" departSpeed="16.08" departDelay="0.00" arrival="107.00" arrivalLane="-E0_0" arrivalPos="500.03" arrivalSpeed="16.07" duration="63.00" routeLength="1001.60" waitingTime="0.00" waitingCount="0" stopTime="0.00" timeLoss="0.70" rerouteNo="0" devices="tripinfo_EW.cv.1 routing_EW.cv.1" vType="cv" speedFactor="1.03" vaporized=""/>
    <tripinfo id="SE.cv.3" depart="23.00" departLane="-E3_0" departPos="5.10" departSpeed="17.26" departDelay="0.00" arrival="108.00" arrivalLane="E2_0" arrivalPos="508.36" arrivalSpeed="12.94" duration="85.00" routeLength="1004.51" waitingTime="0.00" waitingCount="0" stopTime="0.00" timeLoss="17.56" rerouteNo="0" devices="tripinfo_SE.cv.3 routing_SE.cv.3" vType="cv" speedFactor="0.86" vaporized=""/>
    <tripinfo id="SE.cv.4" depart="29.00" departLane="-E3_0" departPos="5.10" departSpeed="21.21" departDelay="0.00" arrival="109.00" arrivalLane="E2_0" arrivalPos="508.36" arrivalSpeed="13.54" duration="80.00" routeLength="1004.51" waitingTime="0.00" waitingCount="0" stopTime="0.00" timeLoss="25.66" rerouteNo="0" devices="tripinfo_SE.cv.4 routing_SE.cv.4" vType="cv" speedFactor="1.05" vaporized=""/>
    <tripinfo id="WE.cv.7" depart="39.00" departLane="E0_1" departPos="5.10" departSpeed="14.92" departDelay="0.00" arrival="109.00" arrivalLane="E2_1" arrivalPos="508.36" arrivalSpeed="14.86" duration="70.00" routeLength="1002.59" waitingTime="0.00" waitingCount="0" stopTime="0.00" timeLoss="2.82" rerouteNo="0" devices="tripinfo_WE.cv.7 routing_WE.cv.7" vType="cv" speedFactor="0.95" vaporized=""/>
    <tripinfo id="SN.cv.3" depart="19.00" departLane="-E3_2" departPos="5.10" departSpeed="18.72" departDelay="0.00" arrival="111.00" arrivalLane="-E1_0" arrivalPos="498.92" arrivalSpeed="18.72" duration="92.00" routeLength="995.07" waitingTime="27.00" waitingCount="1" stopTime="0.00" timeLoss="38.09" rerouteNo="0" devices="tripinfo_SN.cv.3 routing_SN.cv.3" vType="cv" speedFactor="0.93" vaporized=""/>
    <tripinfo id="WE.cv.2" depart="19.00" departLane="E0_1" departPos="5.10" departSpeed="13.42" departDelay="0.00" arrival="112.00" arrivalLane="E2_0" arrivalPos="508.36" arrivalSpeed="13.23" duration="93.00" routeLength="1002.59" waitingTime="0.00" waitingCount="0" stopTime="0.00" timeLoss="17.36" rerouteNo="0" devices="tripinfo_WE.cv.2 routing_WE.cv.2" vType="cv" speedFactor="0.86" vaporized=""/>
    <tripinfo id="SN.4" depart="36.00" departLane="-E3_2" departPos="5.10" departSpeed="23.18" departDelay="0.00" arrival="112.00" arrivalLane="-E1_1" arrivalPos="498.92" arrivalSpeed="23.13" duration="76.00" routeLength="995.07" waitingTime="15.00" waitingCount="1" stopTime="0.00" timeLoss="32.31" rerouteNo="0" devices="tripinfo_SN.4 routing_SN.4" vType="car" speedFactor="1.15" vaporized=""/>
    <tripinfo id="SN.cv.4" depart="25.00" departLane="-E3_1" departPos="5.10" departSpeed="17.08" departDelay="0.00" arrival="114.00" arrivalLane="-E1_0" arrivalPos="498.92" arrivalSpeed="17.00" duration="89.00" routeLength="995.07" waitingTime="18.00" waitingCount="1" stopTime="0.00" timeLoss="29.79" rerouteNo="0" devices="tripinfo_SN.cv.4 routing_SN.cv.4" vType="cv" speedFactor="0.85" vaporized=""/>
    <tripinfo id="SN.cv.5" depart="39.00" departLane="-E3_1" departPos="5.10" departSpeed="22.51" departDelay="0.00" arrival="114.00" arrivalLane="-E1_1" arrivalPos="498.92" arrivalSpeed="22.07" duration="75.00" routeLength="995.07" waitingTime="13.00" waitingCount="1" stopTime="0.00" timeLoss="30.46" rerouteNo="0" devices="tripinfo_SN.cv.5 routing_SN.cv.5" vType="cv" speedFactor="1.12" vaporized=""/>
    <tripinfo id="SW.0" depart="15.00" departLane="-E3_3" departPos="5.10" departSpeed="19.46" departDelay="0.00" arrival="116.00" arrivalLane="-E0_0" arrivalPos="500.03" arrivalSpeed="15.14" duration="101.00" routeLength="996.18" waitingTime="31.00" waitingCount="1" stopTime="0.00" timeLoss="42.40" rerouteNo="0" devices="tripinfo_SW.0 routing_SW.0" vType="car" speedFactor="0.97" vaporized=""/>
    <tripinfo id="SN.cv.8" depart="45.00" departLane="-E3_2" departPos="5.10" departSpeed="16.94" departDelay="0.00" arrival="116.00" arrivalLane="-E1_0" arrivalPos="498.92" arrivalSpeed="16.73" duration="71.00" routeLength="995.07" waitingTime="0.00" waitingCount="0" stopTime="0.00" timeLoss="12.19" rerouteNo="0" devices="tripinfo_SN.cv.8 routing_SN.cv.8" vType="cv" speedFactor="0.84" vaporized=""/>
    <tripinfo id="SN.cv.9" depart="52.00" departLane="-E3_1" departPos="5.10" departSpeed="19.69" departDelay="0.00" arrival="117.00" arrivalLane="-E1_1" arrivalPos="498.92" arrivalSpeed="19.60" duration="65.00" routeLength="995.07" waitingTime="0.00" waitingCount="0" stopTime="0.00" timeLoss="14.27" rerouteNo="0" devices="tripinfo_SN.cv.9 routing_SN.cv.9" vType="cv" speedFactor="0.98" vaporized=""/>
    <tripinfo id="SW.1" depart="29.00" departLane="-E3_3" departPos="5.10" departSpeed="20.12" departDelay="0.00" arrival="118.00" arrivalLane="-E0_0" arrivalPos="500.03" arrivalSpeed="15.65" duration="89.00" routeLength="996.18" waitingTime="19.00" waitingCount="1" stopTime="0.00" timeLoss="31.68" rerouteNo="0" devices="tripinfo_SW.1 routing_SW.1" vType="car" speedFactor="1.00" vaporized=""/>
    <tripinfo id="SN.cv.7" depart="44.00" departLane="-E3_1" departPos="5.10" departSpeed="18.73" departDelay="0.00" arrival="118.00" arrivalLane="-E1_0" arrivalPos="498.92" arrivalSpeed="17.85" duration="74.00" routeLength="995.07" waitingTime="0.00" waitingCount="0" stopTime="0.00" timeLoss="20.74" rerouteNo="0" devices="tripinfo_SN.cv.7 routing_SN.cv.7" vType="cv" speedFactor="0.93" vaporized=""/>
    <tripinfo id="SN.cv.10" depart="59.00" departLane="-E3_2" departPos="5.10" departSpeed="21.26" departDelay="0.00" arrival="119.00" arrivalLane="-E1_1" arrivalPos="498.92" arrivalSpeed="20.37" duration="60.00" routeLength="995.07" waitingTime="0.00" waitingCount="0" stopTime="0.00" timeLoss="13.02" rerouteNo="0" devices="tripinfo_SN.cv.10 routing_SN.cv.10" vType="cv" speedFactor="1.06" vaporized=""/>
    <tripinfo id="SN.cv.6" depart="43.00" departLane="-E3_2" departPos="5.10" departSpeed="23.31" departDelay="0.00" arrival="120.00" arrivalLane="-E1_0" arrivalPos="498.92" arrivalSpeed="19.91" duration="77.00" routeLength="995.07" waitingTime="11.00" waitingCount="1" stopTime="0.00" timeLoss="33.78" rerouteNo="0" devices="tripinfo_SN.cv.6 routing_SN.cv.6" vType="cv" speedFactor="1.16" vaporized=""/>
    <tripinfo id="SW.2" depart="38.00" departLane="-E3_3" departPos="5.10" departSpeed="20.50" departDelay="0.00" arrival="121.00" arrivalLane="-E0_1" arrivalPos="500.03" arrivalSpeed="15.90" duration="83.00" routeLength="996.18" waitingTime="12.00" waitingCount="1" stopTime="0.00" timeLoss="26.83" rerouteNo="0" devices="tripinfo_SW.2 routing_SW.2" vType="car" speedFactor="1.02" vaporized=""/>
    <tripinfo id="SE.cv.5" depart="45.00" departLane="-E3_0" departPos="5.10" departSpeed="16.93" departDelay="0.00" arrival="121.00" arrivalLane="E2_0" arrivalPos="508.36" arrivalSpeed="13.17" duration="76.00" routeLength="1004.51" waitingTime="0.00" waitingCount="0" stopTime="0.00" timeLoss="8.03" rerouteNo="0" devices="tripinfo_SE.cv.5 routing_SE.cv.5" vType="cv" speedFactor="0.84" vaporized=""/>
    <tripinfo id="NW.cv.0" depart="54.00" departLane="E1_0" departPos="5.10" departSpeed="18.97" departDelay="0.00" arrival="121.00" arrivalLane="-E0_0" arrivalPos="500.03" arrivalSpeed="14.72" duration="67.00" routeLength="993.70" waitingTime="0.00" waitingCount="0" stopTime="0.00" timeLoss="6.55" rerouteNo="0" devices="tripinfo_NW.cv.0 routing_NW.cv.0" vType="cv" speedFactor="0.94" vaporized=""/>
    <tripinfo id="SN.cv.11" depart="65.00" departLane="-E3_1" departPos="5.10" departSpeed="22.21" departDelay="0.00" arrival="121.00" arrivalLane="-E1_1" arrivalPos="498.92" arrivalSpeed="20.84" duration="56.00" routeLength="995.07" waitingTime="0.00" waitingCount="0" stopTime="0.00" timeLoss="10.85" rerouteNo="0" devices="tripinfo_SN.cv.11 routing_SN.cv.11" vType="cv" speedFactor="1.10" vaporized=""/>
    <tripinfo id="NS.1" depart="27.00" departLane="E1_2" departPos="5.10" departSpeed="19.68" departDelay="0.00" arrival="123.00" arrivalLane="E3_0" arrivalPos="501.31" arrivalSpeed="19.68" duration="96.00" routeLength="994.98" waitingTime="33.00" waitingCount="1" stopTime="0.00" timeLoss="44.71" rerouteNo="0" devices="tripinfo_NS.1 routing_NS.1" vType="car" speedFactor="0.98" vaporized=""/>
    <tripinfo id="NS.2" depart="33.00" departLane="E1_1" departPos="5.10" departSpeed="19.50" departDelay="0.00" arrival="123.00" arrivalLane="E3_1" arrivalPos="501.31" arrivalSpeed="19.50" duration="90.00" routeLength="994.98" waitingTime="26.00" waitingCount="1" stopTime="0.00" timeLoss="38.45" rerouteNo="0" devices="tripinfo_NS.2 routing_NS.2" vType="car" speedFactor="0.97" vaporized=""/>
    <tripinfo id="SN.5" depart="68.00" departLane="-E3_2" departPos="5.10" departSpeed="23.08" departDelay="0.00" arrival="123.00" arrivalLane="-E1_1" arrivalPos="498.92" arrivalSpeed="21.28" duration="55.00" routeLength="995.07" waitingTime="0.00" waitingCount="0" stopTime="0.00" timeLoss="11.30" rerouteNo="0" devices="tripinfo_SN.5 routing_SN.5" vType="car" speedFactor="1.15" vaporized=""/>
    <tripinfo id="SN.6" depart="70.00" departLane="-E3_1" departPos="5.10" departSpeed="18.78" departDelay="0.00" arrival="125.00" arrivalLane="-E1_0" arrivalPos="498.92" arrivalSpeed="18.76" duration="55.00" routeLength="995.07" waitingTime="0.00" waitingCount="0" stopTime="0.00" timeLoss="1.70" rerouteNo="0" devices="tripinfo_SN.6 routing_SN.6" vType="car" speedFactor="0.93" vaporized=""/>
    <tripinfo id="SN.cv.12" depart="71.00" departLane="-E3_2" departPos="5.10" departSpeed="20.00" departDelay="0.00" arrival="125.00" arrivalLane="-E1_1" arrivalPos="498.92" arrivalSpeed="19.53" duration="54.00" routeLength="995.07" waitingTime="0.00" waitingCount="0" stopTime="0.00" timeLoss="4.00" rerouteNo="0" devices="tripinfo_SN.cv.12 routing_SN.cv.12" vType="cv" speedFactor="0.99" vaporized=""/>
    <tripinfo id="NS.4" depart="45.00" departLane="E1_1" departPos="5.10" departSpeed="20.14" departDelay="0.00" arrival="126.00" arrivalLane="E3_0" arrivalPos="501.31" arrivalSpeed="19.96" duration="81.00" routeLength="994.98" waitingTime="13.00" waitingCount="1" stopTime="0.00" timeLoss="30.75" rerouteNo="0" devices="tripinfo_NS.4 routing_NS.4" vType="car" speedFactor="1.00" vaporized=""/>
    <tripinfo id="NS.cv.4" depart="48.00" departLane="E1_1" departPos="5.10" departSpeed="21.38" departDelay="0.00" arrival="127.00" arrivalLane="E3_1" arrivalPos="501.31" arrivalSpeed="21.31" duration="79.00" routeLength="994.98" waitingTime="13.00" waitingCount="1" stopTime="0.00" timeLoss="32.09" rerouteNo="0" devices="tripinfo_NS.cv.4 routing_NS.cv.4" vType="cv" speedFactor="1.06" vaporized=""/>
    <tripinfo id="SN.7" depart="74.00" departLane="-E3_1" departPos="5.10" departSpeed="22.19" departDelay="0.00" arrival="127.00" arrivalLane="-E1_1" arrivalPos="498.92" arrivalSpeed="20.63" duration="53.00" routeLength="995.07" waitingTime="0.00" waitingCount="0" stopTime="0.00" timeLoss="7.70" rerouteNo="0" devices="tripinfo_SN.7 routing_SN.7" vType="car" speedFactor="1.10" vaporized=""/>
    <tripinfo id="NS.cv.5" depart="53.00" departLane="E1_2" departPos="5.10" departSpeed="24.39" departDelay="0.00" arrival="129.00" arrivalLane="E3_1" arrivalPos="501.31" arrivalSpeed="22.79" duration="76.00" routeLength="994.98" waitingTime="13.00" waitingCount="1" stopTime="0.00" timeLoss="34.65" rerouteNo="0" devices="tripinfo_NS.cv.5 routing_NS.cv.5" vType="cv" speedFactor="1.21" vaporized=""/>
    <tripinfo id="NS.3" depart="44.00" departLane="E1_2" departPos="5.10" departSpeed="16.69" departDelay="0.00" arrival="130.00" arrivalLane="E3_0" arrivalPos="501.31" arrivalSpeed="16.67" duration="86.00" routeLength="994.98" waitingTime="13.00" waitingCount="1" stopTime="0.00" timeLoss="25.58" rerouteNo="0" devices="tripinfo_NS.3 routing_NS.3" vType="car" speedFactor="0.83" vaporized=""/>
    <tripinfo id="NW.cv.1" depart="56.00" departLane="E1_0" departPos="5.10" departSpeed="16.55" departDelay="0.00" arrival="130.00" arrivalLane="-E0_0" arrivalPos="500.03" arrivalSpeed="12.88" duration="74.00" routeLength="993.70" waitingTime="0.00" waitingCount="0" stopTime="0.00" timeLoss="4.81" rerouteNo="0" devices="tripinfo_NW.cv.1 routing_NW.cv.1" vType="cv" speedFactor="0.82" vaporized=""/>
    <tripinfo id="NS.cv.6" depart="71.00" departLane="E1_1" departPos="5.10" departSpeed="20.93" departDelay="0.00" arrival="132.00" arrivalLane="E3_1" arrivalPos="501.31" arrivalSpeed="20.74" duration="61.00" routeLength="994.98" waitingTime="0.00" waitingCount="0" stopTime="0.00" timeLoss="12.58" rerouteNo="0" devices="tripinfo_NS.cv.6 routing_NS.cv.6" vType="cv" speedFactor="1.04" vaporized=""/>
    <tripinfo id="NS.cv.3" depart="45.00" departLane="E1_2" departPos="5.10" departSpeed="13.58" departDelay="0.00" arrival="133.00" arrivalLane="E3_0" arrivalPos="501.31" arrivalSpeed="16.21" duration="88.00" routeLength="994.98" waitingTime="12.00" waitingCount="1" stopTime="0.00" timeLoss="26.31" rerouteNo="0" devices="tripinfo_NS.cv.3 routing_NS.cv.3" vType="cv" speedFactor="0.81" vaporized=""/>
    <tripinfo id="NS.5" depart="74.00" departLane="E1_1" departPos="5.10" departSpeed="20.64" departDelay="0.00" arrival="134.00" arrivalLane="E3_1" arrivalPos="501.31" arrivalSpeed="20.21" duration="60.00" routeLength="994.98" waitingTime="0.00" waitingCount="0" stopTime="0.00" timeLoss="11.35" rerouteNo="0" devices="tripinfo_NS.5 routing_NS.5" vType="car" speedFactor="1.03" vaporized=""/>
    <tripinfo id="NS.cv.7" depart="72.00" departLane="E1_2" departPos="5.10" departSpeed="20.28" departDelay="0.00" arrival="135.00" arrivalLane="E3_0" arrivalPos="501.31" arrivalSpeed="18.44" duration="63.00" routeLength="994.98" waitingTime="0.00" waitingCount="0" stopTime="0.00" timeLoss="13.14" rerouteNo="0" devices="tripinfo_NS.cv.7 routing_NS.cv.7" vType="cv" speedFactor="1.01" vaporized=""/>
    <tripinfo id="WE.cv.8" depart="44.00" departLane="E0_0" departPos="5.10" departSpeed="11.30" departDelay="0.00" arrival="135.00" arrivalLane="E2_0" arrivalPos="508.36" arrivalSpeed="2.60" duration="91.00" routeLength="1002.59" waitingTime="39.00" waitingCount="1" stopTime="0.00" timeLoss="47.13" rerouteNo="0" devices="tripinfo_WE.cv.8 routing_WE.cv.8" vType="cv" speedFactor="0.72" vaporized="teleport"/>
    <tripinfo id="NS.cv.8" depart="76.00" departLane="E1_2" departPos="5.10" departSpeed="22.05" departDelay="0.00" arrival="136.00" arrivalLane="E3_0" arrivalPos="501.31" arrivalSpeed="18.65" duration="60.00" routeLength="994.98" waitingTime="0.00" waitingCount="0" stopTime="0.00" timeLoss="14.76" rerouteNo="0" devices="tripinfo_NS.cv.8 routing_NS.cv.8" vType="cv" speedFactor="1.10" vaporized=""/>
    <tripinfo id="NS.cv.9" depart="81.00" departLane="E1_1" departPos="5.10" departSpeed="20.60" departDelay="0.00" arrival="136.00" arrivalLane="E3_1" arrivalPos="501.31" arrivalSpeed="20.08" duration="55.00" routeLength="994.98" waitingTime="0.00" waitingCount="0" stopTime="0.00" timeLoss="6.65" rerouteNo="0" devices="tripinfo_NS.cv.9 routing_NS.cv.9" vType="cv" speedFactor="1.02" vaporized=""/>
    <tripinfo id="SE.cv.6" depart="71.00" departLane="-E3_0" departPos="5.10" departSpeed="19.53" departDelay="0.00" arrival="138.00" arrivalLane="E2_0" arrivalPos="508.36" arrivalSpeed="15.19" duration="67.00" routeLength="1004.51" waitingTime="0.00" waitingCount="0" stopTime="0.00" timeLoss="7.63" rerouteNo="0" devices="tripinfo_SE.cv.6 routing_SE.cv.6" vType="cv" speedFactor="0.97" vaporized=""/>
    <tripinfo id="SE.cv.7" depart="72.00" departLane="-E3_0" departPos="5.10" departSpeed="17.11" departDelay="0.00" arrival="138.00" arrivalLane="E2_1" arrivalPos="508.36" arrivalSpeed="16.85" duration="66.00" routeLength="1004.51" waitingTime="0.00" waitingCount="0" stopTime="0.00" timeLoss="12.40" rerouteNo="0" devices="tripinfo_SE.cv.7 routing_SE.cv.7" vType="cv" speedFactor="1.08" vaporized=""/>
    <tripinfo id="SN.8" depart="88.00" departLane="-E3_1" departPos="5.10" departSpeed="20.06" departDelay="0.00" arrival="139.00" arrivalLane="-E1_0" arrivalPos="498.92" arrivalSpeed="20.06" duration="51.00" routeLength="995.07" waitingTime="0.00" waitingCount="0" stopTime="0.00" timeLoss="0.85" rerouteNo="0" devices="tripinfo_SN.8 routing_SN.8" vType="car" speedFactor="1.00" vaporized=""/>
    <tripinfo id="SN.cv.13" depart="88.00" departLane="-E3_2" departPos="5.10" departSpeed="20.41" departDelay="0.00" arrival="139.00" arrivalLane="-E1_1" arrivalPos="498.92" arrivalSpeed="20.41" duration="51.00" routeLength="995.07" waitingTime="0.00" waitingCount="0" stopTime="0.00" timeLoss="1.85" rerouteNo="0" devices="tripinfo_SN.cv.13 routing_SN.cv.13" vType="cv" speedFactor="1.01" vaporized=""/>