<?xml version="1.0" encoding="UTF-8"?>

<!-- generated on 2023-01-30 11:02:22 by Eclipse SUMO sumo Version 1.13.0
<configuration xmlns:xsi="http://www.w3.org/2001/XMLSchema-instance" xsi:noNamespaceSchemaLocation="http://sumo.dlr.de/xsd/sumoConfiguration.xsd">

    <input>
        <net-file value="data/Eastway-Central.net.xml"/>
        <route-files value="data/cav80.rou.xml"/>
        <additional-files value="data/Eastway-Central.add.xml"/>
    </input>

    <output>
        <tripinfo-output value="result\2023-01-30-11-01-19\4_tripinfo.xml"/>
    </output>

    <report>
        <no-warnings value="true"/>
        <no-step-log value="true"/>
    </report>

    <traci_server>
        <remote-port value="51576"/>
    </traci_server>

    <random_number>
        <seed value="3"/>
    </random_number>

</configuration>
-->

<tripinfos xmlns:xsi="http://www.w3.org/2001/XMLSchema-instance" xsi:noNamespaceSchemaLocation="http://sumo.dlr.de/xsd/tripinfo_file.xsd">
    <tripinfo id="BNS.0" depart="0.00" departLane="E1_1" departPos="12.10" departSpeed="20.12" departDelay="0.00" arrival="50.00" arrivalLane="E3_0" arrivalPos="501.31" arrivalSpeed="20.12" duration="50.00" routeLength="987.98" waitingTime="0.00" waitingCount="0" stopTime="0.00" timeLoss="0.19" rerouteNo="0" devices="tripinfo_BNS.0 routing_BNS.0" vType="bus" speedFactor="1.00" vaporized=""/>
    <tripinfo id="NS.cv.0" depart="4.00" departLane="E1_2" departPos="5.10" departSpeed="18.57" departDelay="0.00" arrival="58.00" arrivalLane="E3_0" arrivalPos="501.31" arrivalSpeed="18.57" duration="54.00" routeLength="994.98" waitingTime="0.00" waitingCount="0" stopTime="0.00" timeLoss="0.21" rerouteNo="0" devices="tripinfo_NS.cv.0 routing_NS.cv.0" vType="cv" speedFactor="0.92" vaporized=""/>
    <tripinfo id="SE.cv.0" depart="0.00" departLane="-E3_0" departPos="5.10" departSpeed="21.12" departDelay="0.00" arrival="62.00" arrivalLane="E2_0" arrivalPos="508.36" arrivalSpeed="16.43" duration="62.00" routeLength="1004.51" waitingTime="0.00" waitingCount="0" stopTime="0.00" timeLoss="6.92" rerouteNo="0" devices="tripinfo_SE.cv.0 routing_SE.cv.0" vType="cv" speedFactor="1.05" vaporized=""/>
    <tripinfo id="NE.cv.0" depart="3.00" departLane="E1_3" departPos="5.10" departSpeed="22.02" departDelay="0.00" arrival="69.00" arrivalLane="E2_0" arrivalPos="508.36" arrivalSpeed="17.13" duration="66.00" routeLength="1002.03" waitingTime="1.00" waitingCount="1" stopTime="0.00" timeLoss="12.91" rerouteNo="0" devices="tripinfo_NE.cv.0 routing_NE.cv.0" vType="cv" speedFactor="1.09" vaporized=""/>
    <tripinfo id="SW.cv.0" depart="9.00" departLane="-E3_3" departPos="5.10" departSpeed="24.22" departDelay="0.00" arrival="70.00" arrivalLane="-E0_0" arrivalPos="500.03" arrivalSpeed="18.84" duration="61.00" routeLength="996.18" waitingTime="0.00" waitingCount="0" stopTime="0.00" timeLoss="13.10" rerouteNo="0" devices="tripinfo_SW.cv.0 routing_SW.cv.0" vType="cv" speedFactor="1.20" vaporized=""/>
    <tripinfo id="SN.cv.1" depart="20.00" departLane="-E3_2" departPos="5.10" departSpeed="21.20" departDelay="0.00" arrival="71.00" arrivalLane="-E1_0" arrivalPos="498.92" arrivalSpeed="21.20" duration="51.00" routeLength="995.07" waitingTime="0.00" waitingCount="0" stopTime="0.00" timeLoss="3.90" rerouteNo="0" devices="tripinfo_SN.cv.1 routing_SN.cv.1" vType="cv" speedFactor="1.05" vaporized=""/>
    <tripinfo id="SW.cv.1" depart="19.00" departLane="-E3_3" departPos="5.10" departSpeed="23.52" departDelay="0.00" arrival="73.00" arrivalLane="-E0_0" arrivalPos="500.03" arrivalSpeed="18.30" duration="54.00" routeLength="996.18" waitingTime="0.00" waitingCount="0" stopTime="0.00" timeLoss="4.94" rerouteNo="0" devices="tripinfo_SW.cv.1 routing_SW.cv.1" vType="cv" speedFactor="1.17" vaporized=""/>
    <tripinfo id="SN.cv.2" depart="22.00" departLane="-E3_1" departPos="5.10" departSpeed="19.67" departDelay="0.00" arrival="75.00" arrivalLane="-E1_1" arrivalPos="498.92" arrivalSpeed="19.67" duration="53.00" routeLength="995.07" waitingTime="0.00" waitingCount="0" stopTime="0.00" timeLoss="2.28" rerouteNo="0" devices="tripinfo_SN.cv.2 routing_SN.cv.2" vType="cv" speedFactor="0.98" vaporized=""/>
    <tripinfo id="SN.cv.0" depart="9.00" departLane="-E3_1" departPos="5.10" departSpeed="17.45" departDelay="0.00" arrival="77.00" arrivalLane="-E1_0" arrivalPos="498.92" arrivalSpeed="17.44" duration="68.00" routeLength="995.07" waitingTime="0.00" waitingCount="0" stopTime="0.00" timeLoss="10.89" rerouteNo="0" devices="tripinfo_SN.cv.0 routing_SN.cv.0" vType="cv" speedFactor="0.87" vaporized=""/>
    <tripinfo id="SE.cv.1" depart="15.00" departLane="-E3_0" departPos="5.10" departSpeed="20.23" departDelay="0.00" arrival="79.00" arrivalLane="E2_0" arrivalPos="508.36" arrivalSpeed="15.73" duration="64.00" routeLength="1004.51" waitingTime="0.00" waitingCount="0" stopTime="0.00" timeLoss="6.74" rerouteNo="0" devices="tripinfo_SE.cv.1 routing_SE.cv.1" vType="cv" speedFactor="1.01" vaporized=""/>
    <tripinfo id="NS.cv.2" depart="20.00" departLane="E1_1" departPos="5.10" departSpeed="17.70" departDelay="0.00" arrival="81.00" arrivalLane="E3_0" arrivalPos="501.31" arrivalSpeed="17.70" duration="61.00" routeLength="994.98" waitingTime="0.00" waitingCount="0" stopTime="0.00" timeLoss="3.99" rerouteNo="0" devices="tripinfo_NS.cv.2 routing_NS.cv.2" vType="cv" speedFactor="0.88" vaporized=""/>
    <tripinfo id="NS.cv.3" depart="23.00" departLane="E1_2" departPos="5.10" departSpeed="18.57" departDelay="0.00" arrival="82.00" arrivalLane="E3_1" arrivalPos="501.31" arrivalSpeed="18.57" duration="59.00" routeLength="994.98" waitingTime="0.00" waitingCount="0" stopTime="0.00" timeLoss="5.12" rerouteNo="0" devices="tripinfo_NS.cv.3 routing_NS.cv.3" vType="cv" speedFactor="0.92" vaporized=""/>
    <tripinfo id="SN.cv.3" depart="27.00" departLane="-E3_2" departPos="5.10" departSpeed="18.44" departDelay="0.00" arrival="82.00" arrivalLane="-E1_0" arrivalPos="498.92" arrivalSpeed="18.42" duration="55.00" routeLength="995.07" waitingTime="0.00" waitingCount="0" stopTime="0.00" timeLoss="0.73" rerouteNo="0" devices="tripinfo_SN.cv.3 routing_SN.cv.3" vType="cv" speedFactor="0.92" vaporized=""/>
    <tripinfo id="SN.cv.4" depart="29.00" departLane="-E3_1" departPos="5.10" departSpeed="20.03" departDelay="0.00" arrival="83.00" arrivalLane="-E1_1" arrivalPos="498.92" arrivalSpeed="20.03" duration="54.00" routeLength="995.07" waitingTime="0.00" waitingCount="0" stopTime="0.00" timeLoss="3.48" rerouteNo="0" devices="tripinfo_SN.cv.4 routing_SN.cv.4" vType="cv" speedFactor="1.00" vaporized=""/>
    <tripinfo id="NS.cv.4" depart="26.00" departLane="E1_1" departPos="5.10" departSpeed="22.50" departDelay="0.00" arrival="84.00" arrivalLane="E3_1" arrivalPos="501.31" arrivalSpeed="20.72" duration="58.00" routeLength="994.98" waitingTime="0.00" waitingCount="0" stopTime="0.00" timeLoss="13.23" rerouteNo="0" devices="tripinfo_NS.cv.4 routing_NS.cv.4" vType="cv" speedFactor="1.12" vaporized=""/>
    <tripinfo id="NS.cv.1" depart="18.00" departLane="E1_2" departPos="5.10" departSpeed="15.78" departDelay="0.00" arrival="85.00" arrivalLane="E3_0" arrivalPos="501.31" arrivalSpeed="15.77" duration="67.00" routeLength="994.98" waitingTime="0.00" waitingCount="0" stopTime="0.00" timeLoss="3.10" rerouteNo="0" devices="tripinfo_NS.cv.1 routing_NS.cv.1" vType="cv" speedFactor="0.78" vaporized=""/>
    <tripinfo id="SN.cv.5" depart="32.00" departLane="-E3_1" departPos="5.10" departSpeed="20.59" departDelay="0.00" arrival="85.00" arrivalLane="-E1_0" arrivalPos="498.92" arrivalSpeed="20.36" duration="53.00" routeLength="995.07" waitingTime="0.00" waitingCount="0" stopTime="0.00" timeLoss="4.43" rerouteNo="0" devices="tripinfo_SN.cv.5 routing_SN.cv.5" vType="cv" speedFactor="1.02" vaporized=""/>
    <tripinfo id="SN.cv.6" depart="33.00" departLane="-E3_1" departPos="5.10" departSpeed="18.91" departDelay="0.00" arrival="87.00" arrivalLane="-E1_0" arrivalPos="498.92" arrivalSpeed="18.57" duration="54.00" routeLength="995.07" waitingTime="0.00" waitingCount="0" stopTime="0.00" timeLoss="1.29" rerouteNo="0" devices="tripinfo_SN.cv.6 routing_SN.cv.6" vType="cv" speedFactor="0.94" vaporized=""/>
    <tripinfo id="SN.cv.7" depart="35.00" departLane="-E3_2" departPos="5.10" departSpeed="19.95" departDelay="0.00" arrival="88.00" arrivalLane="-E1_1" arrivalPos="498.92" arrivalSpeed="19.91" duration="53.00" routeLength="995.07" waitingTime="0.00" waitingCount="0" stopTime="0.00" timeLoss="2.67" rerouteNo="0" devices="tripinfo_SN.cv.7 routing_SN.cv.7" vType="cv" speedFactor="0.99" vaporized=""/>
    <tripinfo id="NW.cv.0" depart="20.00" departLane="E1_0" departPos="5.10" departSpeed="19.22" departDelay="0.00" arrival="89.00" arrivalLane="-E0_0" arrivalPos="500.03" arrivalSpeed="14.95" duration="69.00" routeLength="993.70" waitingTime="0.00" waitingCount="0" stopTime="0.00" timeLoss="9.31" rerouteNo="0" devices="tripinfo_NW.cv.0 routing_NW.cv.0" vType="cv" speedFactor="0.96" vaporized=""/>
    <tripinfo id="NS.cv.5" depart="30.00" departLane="E1_1" departPos="5.10" departSpeed="16.04" departDelay="0.00" arrival="93.00" arrivalLane="E3_0" arrivalPos="501.31" arrivalSpeed="16.04" duration="63.00" routeLength="994.98" waitingTime="0.00" waitingCount="0" stopTime="0.00" timeLoss="0.38" rerouteNo="0" devices="tripinfo_NS.cv.5 routing_NS.cv.5" vType="cv" speedFactor="0.80" vaporized=""/>
    <tripinfo id="ES.cv.1" depart="2.00" departLane="-E2_3" departPos="5.10" departSpeed="16.33" departDelay="0.00" arrival="96.00" arrivalLane="E3_1" arrivalPos="501.31" arrivalSpeed="20.99" duration="94.00" routeLength="1002.88" waitingTime="28.00" waitingCount="1" stopTime="0.00" timeLoss="39.40" rerouteNo="0" devices="tripinfo_ES.cv.1 routing_ES.cv.1" vType="cv" speedFactor="1.04" vaporized=""/>
    <tripinfo id="ES.cv.0" depart="0.00" departLane="-E2_2" departPos="5.10" departSpeed="15.79" departDelay="0.00" arrival="98.00" arrivalLane="E3_0" arrivalPos="501.31" arrivalSpeed="20.26" duration="98.00" routeLength="1002.88" waitingTime="29.00" waitingCount="1" stopTime="0.00" timeLoss="40.58" rerouteNo="0" devices="tripinfo_ES.cv.0 routing_ES.cv.0" vType="cv" speedFactor="1.01" vaporized=""/>
    <tripinfo id="ES.cv.2" depart="32.00" departLane="-E2_2" departPos="5.10" departSpeed="17.03" departDelay="0.00" arrival="99.00" arrivalLane="E3_1" arrivalPos="501.31" arrivalSpeed="21.61" duration="67.00" routeLength="1002.88" waitingTime="0.00" waitingCount="0" stopTime="0.00" timeLoss="14.29" rerouteNo="0" devices="tripinfo_ES.cv.2 routing_ES.cv.2" vType="cv" speedFactor="1.09" vaporized=""/>
    <tripinfo id="WN.cv.1" depart="17.00" departLane="E0_2" departPos="5.10" departSpeed="13.30" departDelay="0.00" arrival="101.00" arrivalLane="-E1_0" arrivalPos="498.92" arrivalSpeed="17.10" duration="84.00" routeLength="993.15" waitingTime="7.00" waitingCount="1" stopTime="0.00" timeLoss="17.13" rerouteNo="0" devices="tripinfo_WN.cv.1 routing_WN.cv.1" vType="cv" speedFactor="0.85" vaporized=""/>
    <tripinfo id="WN.cv.0" depart="5.00" departLane="E0_2" departPos="5.10" departSpeed="12.60" departDelay="0.00" arrival="102.00" arrivalLane="-E1_0" arrivalPos="498.92" arrivalSpeed="15.47" duration="97.00" routeLength="993.15" waitingTime="17.00" waitingCount="1" stopTime="0.00" timeLoss="27.01" rerouteNo="0" devices="tripinfo_WN.cv.0 routing_WN.cv.0" vType="cv" speedFactor="0.81" vaporized=""/>
    <tripinfo id="SE.cv.2" depart="27.00" departLane="-E3_0" departPos="5.10" departSpeed="16.29" departDelay="0.00" arrival="103.00" arrivalLane="E2_0" arrivalPos="508.36" arrivalSpeed="12.67" duration="76.00" routeLength="1004.51" waitingTime="0.00" waitingCount="0" stopTime="0.00" timeLoss="5.19" rerouteNo="0" devices="tripinfo_SE.cv.2 routing_SE.cv.2" vType="cv" speedFactor="0.81" vaporized=""/>
    <tripinfo id="SE.cv.3" depart="29.00" departLane="-E3_0" departPos="5.10" departSpeed="17.94" departDelay="0.00" arrival="103.00" arrivalLane="E2_1" arrivalPos="508.36" arrivalSpeed="16.39" duration="74.00" routeLength="1004.51" waitingTime="0.00" waitingCount="0" stopTime="0.00" timeLoss="18.52" rerouteNo="0" devices="tripinfo_SE.cv.3 routing_SE.cv.3" vType="cv" speedFactor="1.05" vaporized=""/>
    <tripinfo id="WN.cv.3" depart="45.00" departLane="E0_3" departPos="5.10" departSpeed="18.57" departDelay="0.00" arrival="103.00" arrivalLane="-E1_1" arrivalPos="498.92" arrivalSpeed="21.00" duration="58.00" routeLength="993.15" waitingTime="0.00" waitingCount="0" stopTime="0.00" timeLoss="10.42" rerouteNo="0" devices="tripinfo_WN.cv.3 routing_WN.cv.3" vType="cv" speedFactor="1.19" vaporized=""/>
    <tripinfo id="WN.cv.2" depart="30.00" departLane="E0_3" departPos="5.10" departSpeed="13.33" departDelay="0.00" arrival="104.00" arrivalLane="-E1_0" arrivalPos="498.92" arrivalSpeed="16.51" duration="74.00" routeLength="993.15" waitingTime="0.00" waitingCount="0" stopTime="0.00" timeLoss="7.78" rerouteNo="0" devices="tripinfo_WN.cv.2 routing_WN.cv.2" vType="cv" speedFactor="0.85" vaporized=""/>
    <tripinfo id="SE.0" depart="42.00" departLane="-E3_0" departPos="5.10" departSpeed="19.01" departDelay="0.00" arrival="109.00" arrivalLane="E2_0" arrivalPos="508.36" arrivalSpeed="14.78" duration="67.00" routeLength="1004.51" waitingTime="0.00" waitingCount="0" stopTime="0.00" timeLoss="6.11" rerouteNo="0" devices="tripinfo_SE.0 routing_SE.0" vType="car" speedFactor="0.94" vaporized=""/>
    <tripinfo id="WS.cv.0" depart="5.00" departLane="E0_0" departPos="5.10" departSpeed="14.79" departDelay="0.00" arrival="112.00" arrivalLane="E3_0" arrivalPos="501.31" arrivalSpeed="19.01" duration="107.00" routeLength="995.54" waitingTime="35.00" waitingCount="1" stopTime="0.00" timeLoss="46.48" rerouteNo="0" devices="tripinfo_WS.cv.0 routing_WS.cv.0" vType="cv" speedFactor="0.94" vaporized=""/>
    <tripinfo id="EN.0" depart="26.00" departLane="-E2_0" departPos="5.10" departSpeed="17.37" departDelay="0.00" arrival="112.00" arrivalLane="-E1_1" arrivalPos="498.92" arrivalSpeed="22.33" duration="86.00" routeLength="1000.49" waitingTime="15.00" waitingCount="1" stopTime="0.00" timeLoss="33.86" rerouteNo="0" devices="tripinfo_EN.0 routing_EN.0" vType="car" speedFactor="1.11" vaporized=""/>
    <tripinfo id="NW.cv.1" depart="47.00" departLane="E1_0" departPos="5.10" departSpeed="21.32" departDelay="0.00" arrival="113.00" arrivalLane="-E0_0" arrivalPos="500.03" arrivalSpeed="16.58" duration="66.00" routeLength="993.70" waitingTime="0.00" waitingCount="0" stopTime="0.00" timeLoss="11.85" rerouteNo="0" devices="tripinfo_NW.cv.1 routing_NW.cv.1" vType="cv" speedFactor="1.06" vaporized=""/>
    <tripinfo id="WE.cv.0" depart="6.00" departLane="E0_1" departPos="5.10" departSpeed="16.62" departDelay="0.00" arrival="114.00" arrivalLane="E2_0" arrivalPos="508.36" arrivalSpeed="16.60" duration="108.00" routeLength="1002.59" waitingTime="35.00" waitingCount="1" stopTime="0.00" timeLoss="46.73" rerouteNo="0" devices="tripinfo_WE.cv.0 routing_WE.cv.0" vType="cv" speedFactor="1.06" vaporized=""/>
    <tripinfo id="EW.0" depart="20.00" departLane="-E2_0" departPos="5.10" departSpeed="16.08" departDelay="0.00" arrival="115.00" arrivalLane="-E0_1" arrivalPos="500.03" arrivalSpeed="16.08" duration="95.00" routeLength="1001.60" waitingTime="21.00" waitingCount="1" stopTime="0.00" timeLoss="32.43" rerouteNo="0" devices="tripinfo_EW.0 routing_EW.0" vType="car" speedFactor="1.03" vaporized=""/>
    <tripinfo id="WE.0" depart="0.00" departLane="E0_0" departPos="5.10" departSpeed="15.07" departDelay="0.00" arrival="117.00" arrivalLane="E2_0" arrivalPos="508.36" arrivalSpeed="15.04" duration="117.00" routeLength="1002.59" waitingTime="39.00" waitingCount="1" stopTime="0.00" timeLoss="50.00" rerouteNo="0" devices="tripinfo_WE.0 routing_WE.0" vType="car" speedFactor="0.96" vaporized=""/>
    <tripinfo id="WE.cv.1" depart="13.00" departLane="E0_0" departPos="5.10" departSpeed="15.92" departDelay="0.00" arrival="117.00" arrivalLane="E2_1" arrivalPos="508.36" arrivalSpeed="15.92" duration="104.00" routeLength="1002.59" waitingTime="28.00" waitingCount="1" stopTime="0.00" timeLoss="40.73" rerouteNo="0" devices="tripinfo_WE.cv.1 routing_WE.cv.1" vType="cv" speedFactor="1.02" vaporized=""/>
    <tripinfo id="WS.0" depart="29.00" departLane="E0_0" departPos="5.10" departSpeed="13.98" departDelay="0.00" arrival="119.00" arrivalLane="E3_0" arrivalPos="501.31" arrivalSpeed="17.97" duration="90.00" routeLength="995.54" waitingTime="12.00" waitingCount="1" stopTime="0.00" timeLoss="26.41" rerouteNo="0" devices="tripinfo_WS.0 routing_WS.0" vType="car" speedFactor="0.89" vaporized=""/>
    <tripinfo id="SE.1" depart="48.00" departLane="-E3_0" departPos="5.10" departSpeed="22.43" departDelay="0.00" arrival="119.00" arrivalLane="E2_0" arrivalPos="508.36" arrivalSpeed="16.57" duration="71.00" routeLength="1004.51" waitingTime="0.00" waitingCount="0" stopTime="0.00" timeLoss="19.17" rerouteNo="0" devices="tripinfo_SE.1 routing_SE.1" vType="car" speedFactor="1.11" vaporized=""/>
    <tripinfo id="EW.cv.0" depart="22.00" departLane="-E2_1" departPos="5.10" departSpeed="14.30" departDelay="0.00" arrival="120.00" arrivalLane="-E0_0" arrivalPos="500.03" arrivalSpeed="14.30" duration="98.00" routeLength="1001.60" waitingTime="15.00" waitingCount="1" stopTime="0.00" timeLoss="27.75" rerouteNo="0" devices="tripinfo_EW.cv.0 routing_EW.cv.0" vType="cv" speedFactor="0.91" vaporized=""/>
    <tripinfo id="WS.cv.1" depart="46.00" departLane="E0_0" departPos="5.10" departSpeed="18.22" departDelay="0.00" arrival="120.00" arrivalLane="E3_1" arrivalPos="501.31" arrivalSpeed="23.39" duration="74.00" routeLength="995.54" waitingTime="5.00" waitingCount="1" stopTime="0.00" timeLoss="25.35" rerouteNo="0" devices="tripinfo_WS.cv.1 routing_WS.cv.1" vType="cv" speedFactor="1.16" vaporized=""/>
    <tripinfo id="WE.cv.2" depart="28.00" departLane="E0_1" departPos="5.10" departSpeed="16.62" departDelay="0.00" arrival="121.00" arrivalLane="E2_0" arrivalPos="508.36" arrivalSpeed="16.14" duration="93.00" routeLength="1002.59" waitingTime="16.00" waitingCount="1" stopTime="0.00" timeLoss="32.30" rerouteNo="0" devices="tripinfo_WE.cv.2 routing_WE.cv.2" vType="cv" speedFactor="1.06" vaporized=""/>
    <tripinfo id="WE.1" depart="30.00" departLane="E0_1" departPos="5.10" departSpeed="15.33" departDelay="0.00" arrival="121.00" arrivalLane="E2_1" arrivalPos="508.36" arrivalSpeed="15.31" duration="91.00" routeLength="1002.59" waitingTime="12.00" waitingCount="1" stopTime="0.00" timeLoss="25.25" rerouteNo="0" devices="tripinfo_WE.1 routing_WE.1" vType="car" speedFactor="0.98" vaporized=""/>
    <tripinfo id="EW.cv.2" depart="51.00" departLane="-E2_1" departPos="5.10" departSpeed="18.91" departDelay="0.00" arrival="121.00" arrivalLane="-E0_1" arrivalPos="500.03" arrivalSpeed="18.88" duration="70.00" routeLength="1001.60" waitingTime="0.00" waitingCount="0" stopTime="0.00" timeLoss="16.80" rerouteNo="0" devices="tripinfo_EW.cv.2 routing_EW.cv.2" vType="cv" speedFactor="1.21" vaporized=""/>
    <tripinfo id="EW.cv.1" depart="35.00" departLane="-E2_1" departPos="5.10" departSpeed="13.42" departDelay="0.00" arrival="123.00" arrivalLane="-E0_0" arrivalPos="500.03" arrivalSpeed="13.37" duration="88.00" routeLength="1001.60" waitingTime="2.00" waitingCount="1" stopTime="0.00" timeLoss="13.14" rerouteNo="0" devices="tripinfo_EW.cv.1 routing_EW.cv.1" vType="cv" speedFactor="0.86" vaporized=""/>
    <tripinfo id="WE.cv.5" depart="57.00" departLane="E0_0" departPos="5.10" departSpeed="18.70" departDelay="0.00" arrival="123.00" arrivalLane="E2_1" arrivalPos="508.36" arrivalSpeed="17.76" duration="66.00" routeLength="1002.59" waitingTime="0.00" waitingCount="0" stopTime="0.00" timeLoss="12.08" rerouteNo="0" devices="tripinfo_WE.cv.5 routing_WE.cv.5" vType="cv" speedFactor="1.19" vaporized=""/>
    <tripinfo id="WE.cv.3" depart="31.00" departLane="E0_1" departPos="5.10" departSpeed="11.64" departDelay="0.00" arrival="125.00" arrivalLane="E2_0" arrivalPos="508.36" arrivalSpeed="14.74" duration="94.00" routeLength="1002.59" waitingTime="10.00" waitingCount="1" stopTime="0.00" timeLoss="25.38" rerouteNo="0" devices="tripinfo_WE.cv.3 routing_WE.cv.3" vType="cv" speedFactor="0.94" vaporized=""/>
    <tripinfo id="EW.cv.3" depart="56.00" departLane="-E2_0" departPos="5.10" departSpeed="15.38" departDelay="0.00" arrival="125.00" arrivalLane="-E0_1" arrivalPos="500.03" arrivalSpeed="15.37" duration="69.00" routeLength="1001.60" waitingTime="0.00" waitingCount="0" stopTime="0.00" timeLoss="3.69" rerouteNo="0" devices="tripinfo_EW.cv.3 routing_EW.cv.3" vType="cv" speedFactor="0.98" vaporized=""/>
    <tripinfo id="NW.cv.2" depart="57.00" departLane="E1_0" departPos="5.10" departSpeed="19.40" departDelay="0.00" arrival="125.00" arrivalLane="-E0_0" arrivalPos="500.03" arrivalSpeed="14.53" duration="68.00" routeLength="993.70" waitingTime="0.00" waitingCount="0" stopTime="0.00" timeLoss="9.16" rerouteNo="0" devices="tripinfo_NW.cv.2 routing_NW.cv.2" vType="cv" speedFactor="0.96" vaporized=""/>
    <tripinfo id="WE.cv.4" depart="53.00" departLane="E0_1" departPos="5.10" departSpeed="16.08" departDelay="0.00" arrival="127.00" arrivalLane="E2_1" arrivalPos="508.36" arrivalSpeed="16.06" duration="74.00" routeLength="1002.59" waitingTime="0.00" waitingCount="0" stopTime="0.00" timeLoss="10.92" rerouteNo="0" devices="tripinfo_WE.cv.4 routing_WE.cv.4" vType="cv" speedFactor="1.03" vaporized=""/>
    <tripinfo id="WE.2" depart="31.00" departLane="E0_0" departPos="5.10" departSpeed="14.63" departDelay="0.00" arrival="128.00" arrivalLane="E2_0" arrivalPos="508.36" arrivalSpeed="14.58" duration="97.00" routeLength="1002.59" waitingTime="11.00" waitingCount="1" stopTime="0.00" timeLoss="28.06" rerouteNo="0" devices="tripinfo_WE.2 routing_WE.2" vType="car" speedFactor="0.93" vaporized=""/>
    <tripinfo id="WE.cv.6" depart="60.00" departLane="E0_1" departPos="5.10" departSpeed="15.57" departDelay="0.00" arrival="130.00" arrivalLane="E2_1" arrivalPos="508.36" arrivalSpeed="15.51" duration="70.00" routeLength="1002.59" waitingTime="0.00" waitingCount="0" stopTime="0.00" timeLoss="5.08" rerouteNo="0" devices="tripinfo_WE.cv.6 routing_WE.cv.6" vType="cv" speedFactor="0.99" vaporized=""/>
    <tripinfo id="NW.cv.3" depart="63.00" departLane="E1_0" departPos="5.10" departSpeed="19.16" departDelay="0.00" arrival="130.00" arrivalLane="-E0_0" arrivalPos="500.03" arrivalSpeed="14.89" duration="67.00" routeLength="993.70" waitingTime="0.00" waitingCount="0" stopTime="0.00" timeLoss="6.71" rerouteNo="0" devices="tripinfo_NW.cv.3 routing_NW.cv.3" vType="cv" speedFactor="0.95" vaporized=""/>
    <tripinfo id="SE.cv.4" depart="71.00" departLane="-E3_0" departPos="5.10" departSpeed="23.85" departDelay="0.00" arrival="134.00" arrivalLane="E2_0" arrivalPos="508.36" arrivalSpeed="18.54" duration="63.00" routeLength="1004.51" waitingTime="1.00" waitingCount="1" stopTime="0.00" timeLoss="14.02" rerouteNo="0" devices="tripinfo_SE.cv.4 routing_SE.cv.4" vType="cv" speedFactor="1.19" vaporized=""/>
    <tripinfo id="NW.cv.4" depart="80.00" departLane="E1_0" departPos="5.10" departSpeed="24.41" departDelay="0.00" arrival="136.00" arrivalLane="-E0_1" arrivalPos="500.03" arrivalSpeed="18.98" duration="56.00" routeLength="993.70" waitingTime="0.00" waitingCount="0" stopTime="0.00" timeLoss="8.44" rerouteNo="0" devices="tripinfo_NW.cv.4 routing_NW.cv.4" vType="cv" speedFactor="1.21" vaporized=""/>
    <tripinfo id="SW.cv.2" depart="38.00" departLane="-E3_3" departPos="5.10" departSpeed="18.64" departDelay="0.00" arrival="140.00" arrivalLane="-E0_0" arrivalPos="500.03" arrivalSpeed="14.50" duration="102.00" routeLength="996.18" waitingTime="29.00" waitingCount="1" stopTime="0.00" timeLoss="40.15" rerouteNo="0" devices="tripinfo_SW.cv.2 routing_SW.cv.2" vType="cv" speedFactor="0.93" vaporized=""/>
    <tripinfo id="NE.0" depart="18.00" departLane="E1_3" departPos="5.10" departSpeed="17.91" departDelay="0.00" arrival="142.00" arrivalLane="E2_0" arrivalPos="508.36" arrivalSpeed="13.93" duration="124.00" routeLength="1002.03" waitingTime="48.00" waitingCount="1" stopTime="0.00" timeLoss="59.07" rerouteNo="0" devices="tripinfo_NE.0 routing_NE.0" vType="car" speedFactor="0.89" vaporized=""/>
    <tripinfo id="SN.0" depart="49.00" departLane="-E3_2" departPos="5.10" departSpeed="19.35" departDelay="0.00" arrival="142.00" arrivalLane="-E1_0" arrivalPos="498.92" arrivalSpeed="19.35" duration="93.00" routeLength="995.07" waitingTime="29.00" waitingCount="1" stopTime="0.00" timeLoss="41.08" rerouteNo="0" devices="tripinfo_SN.0 routing_SN.0" vType="car" speedFactor="0.96" vaporized=""/>
    <tripinfo id="SW.cv.4" depart="61.00" departLane="-E3_3" departPos="5.10" departSpeed="21.00" departDelay="0.00" arrival="142.00" arrivalLane="-E0_1" arrivalPos="500.03" arrivalSpeed="16.33" duration="81.00" routeLength="996.18" waitingTime="11.00" waitingCount="1" stopTime="0.00" timeLoss="25.86" rerouteNo="0" devices="tripinfo_SW.cv.4 routing_SW.cv.4" vType="cv" speedFactor="1.04" vaporized=""/>
    <tripinfo id="SN.cv.8" depart="45.00" departLane="-E3_1" departPos="5.10" departSpeed="17.36" departDelay="0.00" arrival="145.00" arrivalLane="-E1_0" arrivalPos="498.92" arrivalSpeed="17.29" duration="100.00" routeLength="995.07" waitingTime="31.00" waitingCount="1" stopTime="0.00" timeLoss="42.18" rerouteNo="0" devices="tripinfo_SN.cv.8 routing_SN.cv.8" vType="cv" speedFactor="0.86" vaporized=""/>
    <tripinfo id="SN.cv.10" depart="64.00" departLane="-E3_2" departPos="5.10" departSpeed="18.87" departDelay="0.00" arrival="145.00" arrivalLane="-E1_1" arrivalPos="498.92" arrivalSpeed="18.87" duration="81.00" routeLength="995.07" waitingTime="15.00" waitingCount="1" stopTime="0.00" timeLoss="28.07" rerouteNo="0" devices="tripinfo_SN.cv.10 routing_SN.cv.10" vType="cv" speedFactor="0.94" vaporized=""/>
    <tripinfo id="SW.cv.5" depart="78.00" departLane="-E3_3" departPos="5.10" departSpeed="20.72" departDelay="0.00" arrival="146.00" arrivalLane="-E0_1" arrivalPos="500.03" arrivalSpeed="16.10" duration="68.00" routeLength="996.18" waitingTime="0.00" waitingCount="0" stopTime="0.00" timeLoss="12.59" rerouteNo="0" devices="tripinfo_SW.cv.5 routing_SW.cv.5" vType="cv" speedFactor="1.03" vaporized=""/>
    <tripinfo id="SN.cv.11" depart="66.00" departLane="-E3_1" departPos="5.10" departSpeed="20.40" departDelay="0.00" arrival="147.00" arrivalLane="-E1_1" arrivalPos="498.92" arrivalSpeed="19.75" duration="81.00" routeLength="995.07" waitingTime="14.00" waitingCount="1" stopTime="0.00" timeLoss="32.23" rerouteNo="0" devices="tripinfo_SN.cv.11 routing_SN.cv.11" vType="cv" speedFactor="1.01" vaporized=""/>
    <tripinfo id="NS.cv.6" depart="42.00" departLane="E1_2" departPos="5.10" departSpeed="20.22" departDelay="0.00" arrival="148.00" arrivalLane="E3_0" arrivalPos="501.31" arrivalSpeed="20.22" duration="106.00" routeLength="994.98" waitingTime="44.00" waitingCount="1" stopTime="0.00" timeLoss="56.51" rerouteNo="0" devices="tripinfo_NS.cv.6 routing_NS.cv.6" vType="cv" speedFactor="1.01" vaporized=""/>
    <tripinfo id="SW.cv.3" depart="53.00" departLane="-E3_3" departPos="5.10" departSpeed="16.01" departDelay="0.00" arrival="148.00" arrivalLane="-E0_0" arrivalPos="500.03" arrivalSpeed="12.45" duration="95.00" routeLength="996.18" waitingTime="12.00" waitingCount="1" stopTime="0.00" timeLoss="22.85" rerouteNo="0" devices="tripinfo_SW.cv.3 routing_SW.cv.3" vType="cv" speedFactor="0.80" vaporized=""/>
    <tripinfo id="SN.cv.13" depart="77.00" departLane="-E3_1" departPos="5.10" departSpeed="22.11" departDelay="0.00" arrival="149.00" arrivalLane="-E1_1" arrivalPos="498.92" arrivalSpeed="20.68" duration="72.00" routeLength="995.07" waitingTime="2.00" waitingCount="1" stopTime="0.00" timeLoss="26.80" rerouteNo="0" devices="tripinfo_SN.cv.13 routing_SN.cv.13" vType="cv" speedFactor="1.10" vaporized=""/>
    <tripinfo id="SN.cv.9" depart="54.00" departLane="-E3_1" departPos="5.10" departSpeed="16.03" departDelay="0.00" arrival="150.00" arrivalLane="-E1_0" arrivalPos="498.92" arrivalSpeed="16.03" duration="96.00" routeLength="995.07" waitingTime="21.00" waitingCount="1" stopTime="0.00" timeLoss="32.96" rerouteNo="0" devices="tripinfo_SN.cv.9 routing_SN.cv.9" vType="cv" speedFactor="0.80" vaporized=""/>
    <tripinfo id="NS.0" depart="44.00" departLane="E1_1" departPos="5.10" departSpeed="18.40" departDelay="0.00" arrival="151.00" arrivalLane="E3_0" arrivalPos="501.31" arrivalSpeed="18.29" duration="107.00" routeLength="994.98" waitingTime="40.00" waitingCount="1" stopTime="0.00" timeLoss="52.25" rerouteNo="0" devices="tripinfo_NS.0 routing_NS.0" vType="car" speedFactor="0.91" vaporized=""/>
    <tripinfo id="SN.cv.12" depart="70.00" departLane="-E3_1" departPos="5.10" departSpeed="22.57" departDelay="0.00" arrival="151.00" arrivalLane="-E1_0" arrivalPos="498.92" arrivalSpeed="17.81" duration="81.00" routeLength="995.07" waitingTime="7.00" waitingCount="2" stopTime="0.00" timeLoss="36.60" rerouteNo="0" devices="tripinfo_SN.cv.12 routing_SN.cv.12" vType="cv" speedFactor="1.12" vaporized=""/>
    <tripinfo id="SW.0" depart="71.00" departLane="-E3_3" departPos="5.10" departSpeed="16.91" departDelay="0.00" arrival="151.00" arrivalLane="-E0_0" arrivalPos="500.03" arrivalSpeed="13.11" duration="80.00" routeLength="996.18" waitingTime="0.00" waitingCount="0" stopTime="0.00" timeLoss="12.05" rerouteNo="0" devices="tripinfo_SW.0 routing_SW.0" vType="car" speedFactor="0.84" vaporized=""/>
    <tripinfo id="NS.cv.8" depart="60.00" departLane="E1_1" departPos="5.10" departSpeed="23.73" departDelay="0.00" arrival="152.00" arrivalLane="E3_0" arrivalPos="501.31" arrivalSpeed="19.62" duration="92.00" routeLength="994.98" waitingTime="26.00" waitingCount="1" stopTime="0.00" timeLoss="50.00" rerouteNo="0" devices="tripinfo_NS.cv.8 routing_NS.cv.8" vType="cv" speedFactor="1.18" vaporized=""/>