<?xml version="1.0" encoding="UTF-8"?>

<!-- generated on 2023-01-30 10:27:00 by Eclipse SUMO sumo Version 1.13.0
<configuration xmlns:xsi="http://www.w3.org/2001/XMLSchema-instance" xsi:noNamespaceSchemaLocation="http://sumo.dlr.de/xsd/sumoConfiguration.xsd">

    <input>
        <net-file value="data/Eastway-Central.net.xml"/>
        <route-files value="data/cav40.rou.xml"/>
        <additional-files value="data/Eastway-Central.add.xml"/>
    </input>

    <output>
        <tripinfo-output value="result\2023-01-30-10-22-18\16_tripinfo.xml"/>
    </output>

    <report>
        <no-warnings value="true"/>
        <no-step-log value="true"/>
    </report>

    <traci_server>
        <remote-port value="50259"/>
    </traci_server>

    <random_number>
        <seed value="15"/>
    </random_number>

</configuration>
-->

<tripinfos xmlns:xsi="http://www.w3.org/2001/XMLSchema-instance" xsi:noNamespaceSchemaLocation="http://sumo.dlr.de/xsd/tripinfo_file.xsd">
    <tripinfo id="BNS.0" depart="0.00" departLane="E1_1" departPos="12.10" departSpeed="20.12" departDelay="0.00" arrival="50.00" arrivalLane="E3_0" arrivalPos="501.31" arrivalSpeed="20.12" duration="50.00" routeLength="987.98" waitingTime="0.00" waitingCount="0" stopTime="0.00" timeLoss="0.19" rerouteNo="0" devices="tripinfo_BNS.0 routing_BNS.0" vType="bus" speedFactor="1.00" vaporized=""/>
    <tripinfo id="NS.cv.0" depart="4.00" departLane="E1_2" departPos="5.10" departSpeed="20.18" departDelay="0.00" arrival="54.00" arrivalLane="E3_0" arrivalPos="501.31" arrivalSpeed="20.14" duration="50.00" routeLength="994.98" waitingTime="0.00" waitingCount="0" stopTime="0.00" timeLoss="0.65" rerouteNo="0" devices="tripinfo_NS.cv.0 routing_NS.cv.0" vType="cv" speedFactor="1.00" vaporized=""/>
    <tripinfo id="NS.1" depart="6.00" departLane="E1_2" departPos="5.10" departSpeed="19.52" departDelay="0.00" arrival="58.00" arrivalLane="E3_0" arrivalPos="501.31" arrivalSpeed="19.48" duration="52.00" routeLength="994.98" waitingTime="0.00" waitingCount="0" stopTime="0.00" timeLoss="0.75" rerouteNo="0" devices="tripinfo_NS.1 routing_NS.1" vType="car" speedFactor="0.97" vaporized=""/>
    <tripinfo id="NS.0" depart="5.00" departLane="E1_1" departPos="5.10" departSpeed="18.17" departDelay="0.00" arrival="61.00" arrivalLane="E3_0" arrivalPos="501.31" arrivalSpeed="18.08" duration="56.00" routeLength="994.98" waitingTime="0.00" waitingCount="0" stopTime="0.00" timeLoss="0.91" rerouteNo="0" devices="tripinfo_NS.0 routing_NS.0" vType="car" speedFactor="0.90" vaporized=""/>
    <tripinfo id="WN.1" depart="4.00" departLane="E0_3" departPos="5.10" departSpeed="14.79" departDelay="0.00" arrival="68.00" arrivalLane="-E1_1" arrivalPos="498.92" arrivalSpeed="19.01" duration="64.00" routeLength="993.15" waitingTime="0.00" waitingCount="0" stopTime="0.00" timeLoss="3.86" rerouteNo="0" devices="tripinfo_WN.1 routing_WN.1" vType="car" speedFactor="0.94" vaporized=""/>
    <tripinfo id="WN.0" depart="3.00" departLane="E0_2" departPos="5.10" departSpeed="15.37" departDelay="0.00" arrival="69.00" arrivalLane="-E1_0" arrivalPos="498.92" arrivalSpeed="19.32" duration="66.00" routeLength="993.15" waitingTime="0.00" waitingCount="0" stopTime="0.00" timeLoss="7.94" rerouteNo="0" devices="tripinfo_WN.0 routing_WN.0" vType="car" speedFactor="0.98" vaporized=""/>
    <tripinfo id="WN.cv.0" depart="11.00" departLane="E0_2" departPos="5.10" departSpeed="15.91" departDelay="0.00" arrival="71.00" arrivalLane="-E1_1" arrivalPos="498.92" arrivalSpeed="20.19" duration="60.00" routeLength="993.15" waitingTime="0.00" waitingCount="0" stopTime="0.00" timeLoss="3.78" rerouteNo="0" devices="tripinfo_WN.cv.0 routing_WN.cv.0" vType="cv" speedFactor="1.02" vaporized=""/>
    <tripinfo id="SE.0" depart="1.00" departLane="-E3_0" departPos="5.10" departSpeed="17.66" departDelay="0.00" arrival="72.00" arrivalLane="E2_0" arrivalPos="508.36" arrivalSpeed="13.74" duration="71.00" routeLength="1004.51" waitingTime="0.00" waitingCount="0" stopTime="0.00" timeLoss="5.78" rerouteNo="0" devices="tripinfo_SE.0 routing_SE.0" vType="car" speedFactor="0.88" vaporized=""/>
    <tripinfo id="WE.cv.0" depart="0.00" departLane="E0_0" departPos="5.10" departSpeed="16.24" departDelay="0.00" arrival="74.00" arrivalLane="E2_1" arrivalPos="508.36" arrivalSpeed="16.24" duration="74.00" routeLength="1002.59" waitingTime="1.00" waitingCount="1" stopTime="0.00" timeLoss="11.61" rerouteNo="0" devices="tripinfo_WE.cv.0 routing_WE.cv.0" vType="cv" speedFactor="1.04" vaporized=""/>
    <tripinfo id="SE.1" depart="7.00" departLane="-E3_0" departPos="5.10" departSpeed="19.38" departDelay="0.00" arrival="76.00" arrivalLane="E2_0" arrivalPos="508.36" arrivalSpeed="15.05" duration="69.00" routeLength="1004.51" waitingTime="0.00" waitingCount="0" stopTime="0.00" timeLoss="9.60" rerouteNo="0" devices="tripinfo_SE.1 routing_SE.1" vType="car" speedFactor="0.96" vaporized=""/>
    <tripinfo id="EW.0" depart="8.00" departLane="-E2_0" departPos="5.10" departSpeed="18.38" departDelay="0.00" arrival="80.00" arrivalLane="-E0_1" arrivalPos="500.03" arrivalSpeed="18.38" duration="72.00" routeLength="1001.60" waitingTime="6.00" waitingCount="1" stopTime="0.00" timeLoss="17.24" rerouteNo="0" devices="tripinfo_EW.0 routing_EW.0" vType="car" speedFactor="1.17" vaporized=""/>
    <tripinfo id="SE.cv.0" depart="9.00" departLane="-E3_0" departPos="5.10" departSpeed="19.19" departDelay="0.00" arrival="80.00" arrivalLane="E2_1" arrivalPos="508.36" arrivalSpeed="14.92" duration="71.00" routeLength="1004.51" waitingTime="0.00" waitingCount="0" stopTime="0.00" timeLoss="10.10" rerouteNo="0" devices="tripinfo_SE.cv.0 routing_SE.cv.0" vType="cv" speedFactor="0.95" vaporized=""/>
    <tripinfo id="WS.0" depart="18.00" departLane="E0_0" departPos="5.10" departSpeed="16.11" departDelay="0.00" arrival="80.00" arrivalLane="E3_0" arrivalPos="501.31" arrivalSpeed="20.71" duration="62.00" routeLength="995.54" waitingTime="0.00" waitingCount="0" stopTime="0.00" timeLoss="6.46" rerouteNo="0" devices="tripinfo_WS.0 routing_WS.0" vType="car" speedFactor="1.03" vaporized=""/>
    <tripinfo id="NW.0" depart="17.00" departLane="E1_0" departPos="5.10" departSpeed="19.16" departDelay="0.00" arrival="83.00" arrivalLane="-E0_0" arrivalPos="500.03" arrivalSpeed="14.91" duration="66.00" routeLength="993.70" waitingTime="0.00" waitingCount="0" stopTime="0.00" timeLoss="6.37" rerouteNo="0" devices="tripinfo_NW.0 routing_NW.0" vType="car" speedFactor="0.95" vaporized=""/>
    <tripinfo id="EW.cv.0" depart="23.00" departLane="-E2_0" departPos="5.10" departSpeed="18.42" departDelay="0.00" arrival="83.00" arrivalLane="-E0_1" arrivalPos="500.03" arrivalSpeed="18.31" duration="60.00" routeLength="1001.60" waitingTime="0.00" waitingCount="0" stopTime="0.00" timeLoss="5.45" rerouteNo="0" devices="tripinfo_EW.cv.0 routing_EW.cv.0" vType="cv" speedFactor="1.18" vaporized=""/>
    <tripinfo id="WE.cv.1" depart="10.00" departLane="E0_1" departPos="5.10" departSpeed="13.81" departDelay="0.00" arrival="84.00" arrivalLane="E2_0" arrivalPos="508.36" arrivalSpeed="13.81" duration="74.00" routeLength="1002.59" waitingTime="0.00" waitingCount="0" stopTime="0.00" timeLoss="1.19" rerouteNo="0" devices="tripinfo_WE.cv.1 routing_WE.cv.1" vType="cv" speedFactor="0.88" vaporized=""/>
    <tripinfo id="SE.2" depart="18.00" departLane="-E3_0" departPos="5.10" departSpeed="18.15" departDelay="0.00" arrival="88.00" arrivalLane="E2_1" arrivalPos="508.36" arrivalSpeed="14.12" duration="70.00" routeLength="1004.51" waitingTime="0.00" waitingCount="0" stopTime="0.00" timeLoss="6.06" rerouteNo="0" devices="tripinfo_SE.2 routing_SE.2" vType="car" speedFactor="0.90" vaporized=""/>
    <tripinfo id="WS.cv.0" depart="29.00" departLane="E0_0" departPos="5.10" departSpeed="16.44" departDelay="0.00" arrival="90.00" arrivalLane="E3_0" arrivalPos="501.31" arrivalSpeed="21.14" duration="61.00" routeLength="995.54" waitingTime="0.00" waitingCount="0" stopTime="0.00" timeLoss="7.21" rerouteNo="0" devices="tripinfo_WS.cv.0 routing_WS.cv.0" vType="cv" speedFactor="1.05" vaporized=""/>
    <tripinfo id="WE.cv.2" depart="21.00" departLane="E0_1" departPos="5.10" departSpeed="15.07" departDelay="0.00" arrival="91.00" arrivalLane="E2_1" arrivalPos="508.36" arrivalSpeed="14.95" duration="70.00" routeLength="1002.59" waitingTime="0.00" waitingCount="0" stopTime="0.00" timeLoss="2.51" rerouteNo="0" devices="tripinfo_WE.cv.2 routing_WE.cv.2" vType="cv" speedFactor="0.96" vaporized=""/>
    <tripinfo id="SE.3" depart="24.00" departLane="-E3_0" departPos="5.10" departSpeed="19.52" departDelay="0.00" arrival="91.00" arrivalLane="E2_0" arrivalPos="508.36" arrivalSpeed="15.18" duration="67.00" routeLength="1004.51" waitingTime="0.00" waitingCount="0" stopTime="0.00" timeLoss="7.34" rerouteNo="0" devices="tripinfo_SE.3 routing_SE.3" vType="car" speedFactor="0.97" vaporized=""/>
    <tripinfo id="EN.0" depart="25.00" departLane="-E2_0" departPos="5.10" departSpeed="15.17" departDelay="0.00" arrival="91.00" arrivalLane="-E1_0" arrivalPos="498.92" arrivalSpeed="19.50" duration="66.00" routeLength="1000.49" waitingTime="0.00" waitingCount="0" stopTime="0.00" timeLoss="6.99" rerouteNo="0" devices="tripinfo_EN.0 routing_EN.0" vType="car" speedFactor="0.97" vaporized=""/>
    <tripinfo id="EW.1" depart="19.00" departLane="-E2_1" departPos="5.10" departSpeed="13.56" departDelay="0.00" arrival="94.00" arrivalLane="-E0_0" arrivalPos="500.03" arrivalSpeed="13.56" duration="75.00" routeLength="1001.60" waitingTime="0.00" waitingCount="0" stopTime="0.00" timeLoss="0.43" rerouteNo="0" devices="tripinfo_EW.1 routing_EW.1" vType="car" speedFactor="0.87" vaporized=""/>
    <tripinfo id="WE.0" depart="23.00" departLane="E0_0" departPos="5.10" departSpeed="14.54" departDelay="0.00" arrival="95.00" arrivalLane="E2_0" arrivalPos="508.36" arrivalSpeed="14.53" duration="72.00" routeLength="1002.59" waitingTime="0.00" waitingCount="0" stopTime="0.00" timeLoss="2.57" rerouteNo="0" devices="tripinfo_WE.0 routing_WE.0" vType="car" speedFactor="0.93" vaporized=""/>
    <tripinfo id="NW.cv.0" depart="31.00" departLane="E1_0" departPos="5.10" departSpeed="20.11" departDelay="0.00" arrival="96.00" arrivalLane="-E0_1" arrivalPos="500.03" arrivalSpeed="15.64" duration="65.00" routeLength="993.70" waitingTime="0.00" waitingCount="0" stopTime="0.00" timeLoss="7.64" rerouteNo="0" devices="tripinfo_NW.cv.0 routing_NW.cv.0" vType="cv" speedFactor="1.00" vaporized=""/>
    <tripinfo id="NW.1" depart="35.00" departLane="E1_0" departPos="5.10" departSpeed="24.03" departDelay="0.00" arrival="96.00" arrivalLane="-E0_0" arrivalPos="500.03" arrivalSpeed="17.43" duration="61.00" routeLength="993.70" waitingTime="0.00" waitingCount="0" stopTime="0.00" timeLoss="13.04" rerouteNo="0" devices="tripinfo_NW.1 routing_NW.1" vType="car" speedFactor="1.19" vaporized=""/>
    <tripinfo id="WS.1" depart="33.00" departLane="E0_0" departPos="5.10" departSpeed="16.26" departDelay="0.00" arrival="98.00" arrivalLane="E3_0" arrivalPos="501.31" arrivalSpeed="20.90" duration="65.00" routeLength="995.54" waitingTime="0.00" waitingCount="0" stopTime="0.00" timeLoss="10.61" rerouteNo="0" devices="tripinfo_WS.1 routing_WS.1" vType="car" speedFactor="1.04" vaporized=""/>
    <tripinfo id="WE.1" depart="35.00" departLane="E0_1" departPos="5.10" departSpeed="15.90" departDelay="0.00" arrival="99.00" arrivalLane="E2_0" arrivalPos="508.36" arrivalSpeed="15.87" duration="64.00" routeLength="1002.59" waitingTime="0.00" waitingCount="0" stopTime="0.00" timeLoss="0.51" rerouteNo="0" devices="tripinfo_WE.1 routing_WE.1" vType="car" speedFactor="1.02" vaporized=""/>
    <tripinfo id="EN.1" depart="35.00" departLane="-E2_0" departPos="5.10" departSpeed="15.32" departDelay="0.00" arrival="100.00" arrivalLane="-E1_0" arrivalPos="498.92" arrivalSpeed="19.69" duration="65.00" routeLength="1000.49" waitingTime="0.00" waitingCount="0" stopTime="0.00" timeLoss="6.31" rerouteNo="0" devices="tripinfo_EN.1 routing_EN.1" vType="car" speedFactor="0.98" vaporized=""/>
    <tripinfo id="WS.2" depart="35.00" departLane="E0_0" departPos="5.10" departSpeed="17.47" departDelay="0.00" arrival="100.00" arrivalLane="E3_1" arrivalPos="501.31" arrivalSpeed="22.46" duration="65.00" routeLength="995.54" waitingTime="0.00" waitingCount="0" stopTime="0.00" timeLoss="13.86" rerouteNo="0" devices="tripinfo_WS.2 routing_WS.2" vType="car" speedFactor="1.12" vaporized=""/>
    <tripinfo id="SE.cv.1" depart="41.00" departLane="-E3_0" departPos="5.10" departSpeed="23.61" departDelay="0.00" arrival="102.00" arrivalLane="E2_0" arrivalPos="508.36" arrivalSpeed="18.20" duration="61.00" routeLength="1004.51" waitingTime="0.00" waitingCount="0" stopTime="0.00" timeLoss="12.12" rerouteNo="0" devices="tripinfo_SE.cv.1 routing_SE.cv.1" vType="cv" speedFactor="1.17" vaporized=""/>
    <tripinfo id="NE.0" depart="9.00" departLane="E1_3" departPos="5.10" departSpeed="22.76" departDelay="0.00" arrival="103.00" arrivalLane="E2_1" arrivalPos="508.36" arrivalSpeed="17.70" duration="94.00" routeLength="1002.03" waitingTime="30.00" waitingCount="1" stopTime="0.00" timeLoss="42.76" rerouteNo="0" devices="tripinfo_NE.0 routing_NE.0" vType="car" speedFactor="1.13" vaporized=""/>
    <tripinfo id="WS.cv.1" depart="43.00" departLane="E0_0" departPos="5.10" departSpeed="17.30" departDelay="0.00" arrival="104.00" arrivalLane="E3_0" arrivalPos="501.31" arrivalSpeed="22.23" duration="61.00" routeLength="995.54" waitingTime="0.00" waitingCount="0" stopTime="0.00" timeLoss="9.34" rerouteNo="0" devices="tripinfo_WS.cv.1 routing_WS.cv.1" vType="cv" speedFactor="1.11" vaporized=""/>
    <tripinfo id="SW.0" depart="3.00" departLane="-E3_3" departPos="5.10" departSpeed="19.15" departDelay="0.00" arrival="107.00" arrivalLane="-E0_0" arrivalPos="500.03" arrivalSpeed="14.90" duration="104.00" routeLength="996.18" waitingTime="33.00" waitingCount="1" stopTime="0.00" timeLoss="43.90" rerouteNo="0" devices="tripinfo_SW.0 routing_SW.0" vType="car" speedFactor="0.95" vaporized=""/>
    <tripinfo id="SW.cv.0" depart="11.00" departLane="-E3_3" departPos="5.10" departSpeed="18.66" departDelay="0.00" arrival="110.00" arrivalLane="-E0_1" arrivalPos="500.03" arrivalSpeed="14.51" duration="99.00" routeLength="996.18" waitingTime="26.00" waitingCount="1" stopTime="0.00" timeLoss="37.86" rerouteNo="0" devices="tripinfo_SW.cv.0 routing_SW.cv.0" vType="cv" speedFactor="0.93" vaporized=""/>
    <tripinfo id="SN.1" depart="10.00" departLane="-E3_2" departPos="5.10" departSpeed="18.43" departDelay="0.00" arrival="111.00" arrivalLane="-E1_0" arrivalPos="498.92" arrivalSpeed="18.43" duration="101.00" routeLength="995.07" waitingTime="35.00" waitingCount="1" stopTime="0.00" timeLoss="46.61" rerouteNo="0" devices="tripinfo_SN.1 routing_SN.1" vType="car" speedFactor="0.92" vaporized=""/>
    <tripinfo id="SN.2" depart="13.00" departLane="-E3_1" departPos="5.10" departSpeed="20.06" departDelay="0.00" arrival="112.00" arrivalLane="-E1_1" arrivalPos="498.92" arrivalSpeed="20.06" duration="99.00" routeLength="995.07" waitingTime="34.00" waitingCount="1" stopTime="0.00" timeLoss="49.22" rerouteNo="0" devices="tripinfo_SN.2 routing_SN.2" vType="car" speedFactor="1.00" vaporized=""/>
    <tripinfo id="SN.0" depart="7.00" departLane="-E3_1" departPos="5.10" departSpeed="16.63" departDelay="0.00" arrival="114.00" arrivalLane="-E1_0" arrivalPos="498.92" arrivalSpeed="16.58" duration="107.00" routeLength="995.07" waitingTime="36.00" waitingCount="1" stopTime="0.00" timeLoss="47.03" rerouteNo="0" devices="tripinfo_SN.0 routing_SN.0" vType="car" speedFactor="0.83" vaporized=""/>
    <tripinfo id="SW.cv.1" depart="15.00" departLane="-E3_3" departPos="5.10" departSpeed="18.13" departDelay="0.00" arrival="114.00" arrivalLane="-E0_0" arrivalPos="500.03" arrivalSpeed="14.10" duration="99.00" routeLength="996.18" waitingTime="23.00" waitingCount="1" stopTime="0.00" timeLoss="35.67" rerouteNo="0" devices="tripinfo_SW.cv.1 routing_SW.cv.1" vType="cv" speedFactor="0.90" vaporized=""/>
    <tripinfo id="SN.cv.0" depart="20.00" departLane="-E3_1" departPos="5.10" departSpeed="22.03" departDelay="0.00" arrival="114.00" arrivalLane="-E1_1" arrivalPos="498.92" arrivalSpeed="21.12" duration="94.00" routeLength="995.07" waitingTime="31.00" waitingCount="1" stopTime="0.00" timeLoss="48.70" rerouteNo="0" devices="tripinfo_SN.cv.0 routing_SN.cv.0" vType="cv" speedFactor="1.09" vaporized=""/>
    <tripinfo id="NS.2" depart="21.00" departLane="E1_1" departPos="5.10" departSpeed="21.17" departDelay="0.00" arrival="115.00" arrivalLane="E3_0" arrivalPos="501.31" arrivalSpeed="21.17" duration="94.00" routeLength="994.98" waitingTime="34.00" waitingCount="1" stopTime="0.00" timeLoss="46.82" rerouteNo="0" devices="tripinfo_NS.2 routing_NS.2" vType="car" speedFactor="1.05" vaporized=""/>
    <tripinfo id="SW.1" depart="34.00" departLane="-E3_3" departPos="5.10" departSpeed="18.73" departDelay="0.00" arrival="115.00" arrivalLane="-E0_1" arrivalPos="500.03" arrivalSpeed="14.56" duration="81.00" routeLength="996.18" waitingTime="6.00" waitingCount="1" stopTime="0.00" timeLoss="19.54" rerouteNo="0" devices="tripinfo_SW.1 routing_SW.1" vType="car" speedFactor="0.93" vaporized=""/>
    <tripinfo id="SN.3" depart="23.00" departLane="-E3_1" departPos="5.10" departSpeed="21.06" departDelay="0.00" arrival="116.00" arrivalLane="-E1_0" arrivalPos="498.92" arrivalSpeed="18.99" duration="93.00" routeLength="995.07" waitingTime="21.00" waitingCount="1" stopTime="0.00" timeLoss="45.25" rerouteNo="0" devices="tripinfo_SN.3 routing_SN.3" vType="car" speedFactor="1.05" vaporized=""/>
    <tripinfo id="NS.cv.1" depart="24.00" departLane="E1_1" departPos="5.10" departSpeed="18.24" departDelay="0.00" arrival="118.00" arrivalLane="E3_1" arrivalPos="501.31" arrivalSpeed="18.24" duration="94.00" routeLength="994.98" waitingTime="28.00" waitingCount="1" stopTime="0.00" timeLoss="39.44" rerouteNo="0" devices="tripinfo_NS.cv.1 routing_NS.cv.1" vType="cv" speedFactor="0.91" vaporized=""/>
    <tripinfo id="SN.4" depart="27.00" departLane="-E3_2" departPos="5.10" departSpeed="18.60" departDelay="0.00" arrival="118.00" arrivalLane="-E1_1" arrivalPos="498.92" arrivalSpeed="18.57" duration="91.00" routeLength="995.07" waitingTime="22.00" waitingCount="1" stopTime="0.00" timeLoss="37.11" rerouteNo="0" devices="tripinfo_SN.4 routing_SN.4" vType="car" speedFactor="0.92" vaporized=""/>
    <tripinfo id="SN.6" depart="34.00" departLane="-E3_2" departPos="5.10" departSpeed="18.80" departDelay="0.00" arrival="118.00" arrivalLane="-E1_0" arrivalPos="498.92" arrivalSpeed="18.06" duration="84.00" routeLength="995.07" waitingTime="11.00" waitingCount="1" stopTime="0.00" timeLoss="30.61" rerouteNo="0" devices="tripinfo_SN.6 routing_SN.6" vType="car" speedFactor="0.93" vaporized=""/>
    <tripinfo id="SW.2" depart="36.00" departLane="-E3_3" departPos="5.10" departSpeed="18.95" departDelay="0.00" arrival="118.00" arrivalLane="-E0_0" arrivalPos="500.03" arrivalSpeed="14.72" duration="82.00" routeLength="996.18" waitingTime="5.00" waitingCount="1" stopTime="0.00" timeLoss="20.89" rerouteNo="0" devices="tripinfo_SW.2 routing_SW.2" vType="car" speedFactor="0.94" vaporized=""/>
    <tripinfo id="SN.8" depart="51.00" departLane="-E3_1" departPos="5.10" departSpeed="22.39" departDelay="0.00" arrival="120.00" arrivalLane="-E1_0" arrivalPos="498.92" arrivalSpeed="19.79" duration="69.00" routeLength="995.07" waitingTime="0.00" waitingCount="0" stopTime="0.00" timeLoss="23.78" rerouteNo="0" devices="tripinfo_SN.8 routing_SN.8" vType="car" speedFactor="1.11" vaporized=""/>
    <tripinfo id="NS.cv.2" depart="30.00" departLane="E1_2" departPos="5.10" departSpeed="19.14" departDelay="0.00" arrival="121.00" arrivalLane="E3_1" arrivalPos="501.31" arrivalSpeed="18.93" duration="91.00" routeLength="994.98" waitingTime="25.00" waitingCount="1" stopTime="0.00" timeLoss="38.61" rerouteNo="0" devices="tripinfo_NS.cv.2 routing_NS.cv.2" vType="cv" speedFactor="0.95" vaporized=""/>
    <tripinfo id="SN.5" depart="31.00" departLane="-E3_1" departPos="5.10" departSpeed="19.24" departDelay="0.00" arrival="121.00" arrivalLane="-E1_1" arrivalPos="498.92" arrivalSpeed="19.00" duration="90.00" routeLength="995.07" waitingTime="21.00" waitingCount="1" stopTime="0.00" timeLoss="37.33" rerouteNo="0" devices="tripinfo_SN.5 routing_SN.5" vType="car" speedFactor="0.96" vaporized=""/>
    <tripinfo id="NS.3" depart="38.00" departLane="E1_1" departPos="5.10" departSpeed="18.13" departDelay="0.00" arrival="121.00" arrivalLane="E3_0" arrivalPos="501.31" arrivalSpeed="18.13" duration="83.00" routeLength="994.98" waitingTime="15.00" waitingCount="1" stopTime="0.00" timeLoss="27.71" rerouteNo="0" devices="tripinfo_NS.3 routing_NS.3" vType="car" speedFactor="0.90" vaporized=""/>
    <tripinfo id="SN.7" depart="50.00" departLane="-E3_1" departPos="5.10" departSpeed="19.82" departDelay="0.00" arrival="122.00" arrivalLane="-E1_0" arrivalPos="498.92" arrivalSpeed="19.23" duration="72.00" routeLength="995.07" waitingTime="4.00" waitingCount="1" stopTime="0.00" timeLoss="21.62" rerouteNo="0" devices="tripinfo_SN.7 routing_SN.7" vType="car" speedFactor="0.99" vaporized=""/>
    <tripinfo id="NS.cv.3" depart="34.00" departLane="E1_1" departPos="5.10" departSpeed="19.97" departDelay="0.00" arrival="123.00" arrivalLane="E3_1" arrivalPos="501.31" arrivalSpeed="19.31" duration="89.00" routeLength="994.98" waitingTime="23.00" waitingCount="1" stopTime="0.00" timeLoss="38.93" rerouteNo="0" devices="tripinfo_NS.cv.3 routing_NS.cv.3" vType="cv" speedFactor="0.99" vaporized=""/>
    <tripinfo id="NS.5" depart="42.00" departLane="E1_1" departPos="5.10" departSpeed="19.95" departDelay="0.00" arrival="123.00" arrivalLane="E3_0" arrivalPos="501.31" arrivalSpeed="19.26" duration="81.00" routeLength="994.98" waitingTime="14.00" waitingCount="1" stopTime="0.00" timeLoss="30.91" rerouteNo="0" devices="tripinfo_NS.5 routing_NS.5" vType="car" speedFactor="0.99" vaporized=""/>
    <tripinfo id="SN.9" depart="52.00" departLane="-E3_2" departPos="5.10" departSpeed="20.39" departDelay="0.00" arrival="123.00" arrivalLane="-E1_0" arrivalPos="498.92" arrivalSpeed="19.73" duration="71.00" routeLength="995.07" waitingTime="3.00" waitingCount="1" stopTime="0.00" timeLoss="21.55" rerouteNo="0" devices="tripinfo_SN.9 routing_SN.9" vType="car" speedFactor="1.01" vaporized=""/>
    <tripinfo id="SN.10" depart="55.00" departLane="-E3_1" departPos="5.10" departSpeed="20.76" departDelay="0.00" arrival="124.00" arrivalLane="-E1_0" arrivalPos="498.92" arrivalSpeed="18.86" duration="69.00" routeLength="995.07" waitingTime="2.00" waitingCount="1" stopTime="0.00" timeLoss="20.94" rerouteNo="0" devices="tripinfo_SN.10 routing_SN.10" vType="car" speedFactor="1.03" vaporized=""/>
    <tripinfo id="SE.cv.2" depart="62.00" departLane="-E3_0" departPos="5.10" departSpeed="20.63" departDelay="0.00" arrival="124.00" arrivalLane="E2_0" arrivalPos="508.36" arrivalSpeed="16.05" duration="62.00" routeLength="1004.51" waitingTime="0.00" waitingCount="0" stopTime="0.00" timeLoss="6.01" rerouteNo="0" devices="tripinfo_SE.cv.2 routing_SE.cv.2" vType="cv" speedFactor="1.03" vaporized=""/>
    <tripinfo id="NS.cv.4" depart="44.00" departLane="E1_1" departPos="5.10" departSpeed="20.58" departDelay="0.00" arrival="125.00" arrivalLane="E3_0" arrivalPos="501.31" arrivalSpeed="20.67" duration="81.00" routeLength="994.98" waitingTime="14.00" waitingCount="1" stopTime="0.00" timeLoss="36.67" rerouteNo="0" devices="tripinfo_NS.cv.4 routing_NS.cv.4" vType="cv" speedFactor="1.13" vaporized=""/>
    <tripinfo id="SN.cv.1" depart="65.00" departLane="-E3_1" departPos="5.10" departSpeed="22.34" departDelay="0.00" arrival="125.00" arrivalLane="-E1_1" arrivalPos="498.92" arrivalSpeed="21.27" duration="60.00" routeLength="995.07" waitingTime="0.00" waitingCount="0" stopTime="0.00" timeLoss="14.54" rerouteNo="0" devices="tripinfo_SN.cv.1 routing_SN.cv.1" vType="cv" speedFactor="1.11" vaporized=""/>
    <tripinfo id="NS.4" depart="39.00" departLane="E1_2" departPos="5.10" departSpeed="18.52" departDelay="0.00" arrival="126.00" arrivalLane="E3_1" arrivalPos="501.31" arrivalSpeed="18.37" duration="87.00" routeLength="994.98" waitingTime="18.00" waitingCount="1" stopTime="0.00" timeLoss="32.84" rerouteNo="0" devices="tripinfo_NS.4 routing_NS.4" vType="car" speedFactor="0.92" vaporized=""/>
    <tripinfo id="SN.11" depart="71.00" departLane="-E3_1" departPos="5.10" departSpeed="19.38" departDelay="0.00" arrival="127.00" arrivalLane="-E1_0" arrivalPos="498.92" arrivalSpeed="19.17" duration="56.00" routeLength="995.07" waitingTime="0.00" waitingCount="0" stopTime="0.00" timeLoss="4.49" rerouteNo="0" devices="tripinfo_SN.11 routing_SN.11" vType="car" speedFactor="0.96" vaporized=""/>
    <tripinfo id="NS.6" depart="43.00" departLane="E1_2" departPos="5.10" departSpeed="20.46" departDelay="0.00" arrival="128.00" arrivalLane="E3_1" arrivalPos="501.31" arrivalSpeed="19.41" duration="85.00" routeLength="994.98" waitingTime="17.00" waitingCount="1" stopTime="0.00" timeLoss="35.86" rerouteNo="0" devices="tripinfo_NS.6 routing_NS.6" vType="car" speedFactor="1.02" vaporized=""/>
    <tripinfo id="NS.8" depart="49.00" departLane="E1_1" departPos="5.10" departSpeed="21.06" departDelay="0.00" arrival="128.00" arrivalLane="E3_0" arrivalPos="501.31" arrivalSpeed="19.93" duration="79.00" routeLength="994.98" waitingTime="12.00" waitingCount="1" stopTime="0.00" timeLoss="30.94" rerouteNo="0" devices="tripinfo_NS.8 routing_NS.8" vType="car" speedFactor="1.05" vaporized=""/>
    <tripinfo id="NS.7" depart="46.00" departLane="E1_2" departPos="5.10" departSpeed="22.13" departDelay="0.00" arrival="130.00" arrivalLane="E3_1" arrivalPos="501.31" arrivalSpeed="20.29" duration="84.00" routeLength="994.98" waitingTime="16.00" waitingCount="1" stopTime="0.00" timeLoss="38.29" rerouteNo="0" devices="tripinfo_NS.7 routing_NS.7" vType="car" speedFactor="1.10" vaporized=""/>
    <tripinfo id="NS.cv.5" depart="60.00" departLane="E1_1" departPos="5.10" departSpeed="21.17" departDelay="0.00" arrival="130.00" arrivalLane="E3_0" arrivalPos="501.31" arrivalSpeed="19.99" duration="70.00" routeLength="994.98" waitingTime="2.00" waitingCount="1" stopTime="0.00" timeLoss="22.16" rerouteNo="0" devices="tripinfo_NS.cv.5 routing_NS.cv.5" vType="cv" speedFactor="1.05" vaporized=""/>
    <tripinfo id="NS.9" depart="51.00" departLane="E1_2" departPos="5.10" departSpeed="22.96" departDelay="0.00" arrival="131.00" arrivalLane="E3_1" arrivalPos="501.31" arrivalSpeed="19.71" duration="80.00" routeLength="994.98" waitingTime="14.00" waitingCount="1" stopTime="0.00" timeLoss="36.55" rerouteNo="0" devices="tripinfo_NS.9 routing_NS.9" vType="car" speedFactor="1.14" vaporized=""/>
    <tripinfo id="NS.10" depart="55.00" departLane="E1_1" departPos="5.10" departSpeed="20.11" departDelay="0.00" arrival="132.00" arrivalLane="E3_0" arrivalPos="501.31" arrivalSpeed="19.33" duration="77.00" routeLength="994.98" waitingTime="1.00" waitingCount="1" stopTime="0.00" timeLoss="26.72" rerouteNo="0" devices="tripinfo_NS.10 routing_NS.10" vType="car" speedFactor="1.00" vaporized=""/>
    <tripinfo id="NS.11" depart="59.00" departLane="E1_2" departPos="5.10" departSpeed="21.71" departDelay="0.00" arrival="133.00" arrivalLane="E3_1" arrivalPos="501.31" arrivalSpeed="20.00" duration="74.00" routeLength="994.98" waitingTime="3.00" waitingCount="1" stopTime="0.00" timeLoss="27.82" rerouteNo="0" devices="tripinfo_NS.11 routing_NS.11" vType="car" speedFactor="1.08" vaporized=""/>
    <tripinfo id="SN.12" depart="80.00" departLane="-E3_2" departPos="5.10" departSpeed="18.94" departDelay="0.00" arrival="133.00" arrivalLane="-E1_0" arrivalPos="498.92" arrivalSpeed="18.94" duration="53.00" routeLength="995.07" waitingTime="0.00" waitingCount="0" stopTime="0.00" timeLoss="0.40" rerouteNo="0" devices="tripinfo_SN.12 routing_SN.12" vType="car" speedFactor="0.94" vaporized=""/>
    <tripinfo id="NS.12" depart="62.00" departLane="E1_2" departPos="5.10" departSpeed="21.99" departDelay="0.00" arrival="135.00" arrivalLane="E3_1" arrivalPos="501.31" arrivalSpeed="20.27" duration="73.00" routeLength="994.98" waitingTime="2.00" waitingCount="1" stopTime="0.00" timeLoss="27.16" rerouteNo="0" devices="tripinfo_NS.12 routing_NS.12" vType="car" speedFactor="1.09" vaporized=""/>
    <tripinfo id="NS.13" depart="78.00" departLane="E1_1" departPos="5.10" departSpeed="19.63" departDelay="0.00" arrival="137.00" arrivalLane="E3_1" arrivalPos="501.31" arrivalSpeed="19.00" duration="59.00" routeLength="994.98" waitingTime="0.00" waitingCount="0" stopTime="0.00" timeLoss="7.86" rerouteNo="0" devices="tripinfo_NS.13 routing_NS.13" vType="car" speedFactor="0.98" vaporized=""/>
    <tripinfo id="SE.cv.3" depart="76.00" departLane="-E3_0" departPos="5.10" departSpeed="20.76" departDelay="0.00" arrival="138.00" arrivalLane="E2_0" arrivalPos="508.36" arrivalSpeed="16.15" duration="62.00" routeLength="1004.51" waitingTime="0.00" waitingCount="0" stopTime="0.00" timeLoss="6.32" rerouteNo="0" devices="tripinfo_SE.cv.3 routing_SE.cv.3" vType="cv" speedFactor="1.03" vaporized=""/>
    <tripinfo id="NS.cv.6" depart="80.00" departLane="E1_2" departPos="5.10" departSpeed="18.28" departDelay="0.00" arrival="138.00" arrivalLane="E3_0" arrivalPos="501.31" arrivalSpeed="18.20" duration="58.00" routeLength="994.98" waitingTime="0.00" waitingCount="0" stopTime="0.00" timeLoss="3.31" rerouteNo="0" devices="tripinfo_NS.cv.6 routing_NS.cv.6" vType="cv" speedFactor="0.91" vaporized=""/>
    <tripinfo id="WN.cv.1" depart="13.00" departLane="E0_3" departPos="5.10" departSpeed="15.77" departDelay="0.00" arrival="145.00" arrivalLane="-E1_1" arrivalPos="498.92" arrivalSpeed="20.27" duration="132.00" routeLength="993.15" waitingTime="64.00" waitingCount="1" stopTime="0.00" timeLoss="75.60" rerouteNo="0" devices="tripinfo_WN.cv.1 routing_WN.cv.1" vType="cv" speedFactor="1.01" vaporized=""/>