<?xml version="1.0" encoding="UTF-8"?>

<!-- generated on 2023-01-30 10:22:19 by Eclipse SUMO sumo Version 1.13.0
<configuration xmlns:xsi="http://www.w3.org/2001/XMLSchema-instance" xsi:noNamespaceSchemaLocation="http://sumo.dlr.de/xsd/sumoConfiguration.xsd">

    <input>
        <net-file value="data/Eastway-Central.net.xml"/>
        <route-files value="data/cav40.rou.xml"/>
        <additional-files value="data/Eastway-Central.add.xml"/>
    </input>

    <output>
        <tripinfo-output value="result\2023-01-30-10-22-18\1_tripinfo.xml"/>
    </output>

    <report>
        <no-warnings value="true"/>
        <no-step-log value="true"/>
    </report>

    <traci_server>
        <remote-port value="50068"/>
    </traci_server>

    <random_number>
        <seed value="0"/>
    </random_number>

</configuration>
-->

<tripinfos xmlns:xsi="http://www.w3.org/2001/XMLSchema-instance" xsi:noNamespaceSchemaLocation="http://sumo.dlr.de/xsd/tripinfo_file.xsd">
    <tripinfo id="WE.0" depart="2.00" departLane="E0_0" departPos="5.10" departSpeed="16.12" departDelay="0.00" arrival="41.00" arrivalLane="E2_0" arrivalPos="508.36" arrivalSpeed="2.79" duration="39.00" routeLength="1002.59" waitingTime="0.00" waitingCount="0" stopTime="0.00" timeLoss="8.24" rerouteNo="0" devices="tripinfo_WE.0 routing_WE.0" vType="car" speedFactor="1.03" vaporized="teleport"/>
    <tripinfo id="SN.cv.0" depart="0.00" departLane="-E3_1" departPos="5.10" departSpeed="22.46" departDelay="0.00" arrival="45.00" arrivalLane="-E1_0" arrivalPos="498.92" arrivalSpeed="22.46" duration="45.00" routeLength="995.07" waitingTime="0.00" waitingCount="0" stopTime="0.00" timeLoss="0.14" rerouteNo="0" devices="tripinfo_SN.cv.0 routing_SN.cv.0" vType="cv" speedFactor="1.12" vaporized=""/>
    <tripinfo id="SE.0" depart="10.00" departLane="-E3_0" departPos="5.10" departSpeed="18.75" departDelay="0.00" arrival="45.00" arrivalLane="E2_0" arrivalPos="508.36" arrivalSpeed="4.68" duration="35.00" routeLength="1004.51" waitingTime="0.00" waitingCount="0" stopTime="0.00" timeLoss="8.35" rerouteNo="0" devices="tripinfo_SE.0 routing_SE.0" vType="car" speedFactor="0.93" vaporized="teleport"/>
    <tripinfo id="BNS.0" depart="0.00" departLane="E1_1" departPos="12.10" departSpeed="20.12" departDelay="0.00" arrival="50.00" arrivalLane="E3_0" arrivalPos="501.31" arrivalSpeed="20.12" duration="50.00" routeLength="987.98" waitingTime="0.00" waitingCount="0" stopTime="0.00" timeLoss="0.19" rerouteNo="0" devices="tripinfo_BNS.0 routing_BNS.0" vType="bus" speedFactor="1.00" vaporized=""/>
    <tripinfo id="SN.0" depart="3.00" departLane="-E3_2" departPos="5.10" departSpeed="20.43" departDelay="0.00" arrival="52.00" arrivalLane="-E1_0" arrivalPos="498.92" arrivalSpeed="20.43" duration="49.00" routeLength="995.07" waitingTime="0.00" waitingCount="0" stopTime="0.00" timeLoss="0.19" rerouteNo="0" devices="tripinfo_SN.0 routing_SN.0" vType="car" speedFactor="1.02" vaporized=""/>
    <tripinfo id="NS.1" depart="8.00" departLane="E1_1" departPos="5.10" departSpeed="22.65" departDelay="0.00" arrival="54.00" arrivalLane="E3_1" arrivalPos="501.31" arrivalSpeed="22.65" duration="46.00" routeLength="994.98" waitingTime="0.00" waitingCount="0" stopTime="0.00" timeLoss="1.32" rerouteNo="0" devices="tripinfo_NS.1 routing_NS.1" vType="car" speedFactor="1.13" vaporized=""/>
    <tripinfo id="SN.1" depart="5.00" departLane="-E3_1" departPos="5.10" departSpeed="19.02" departDelay="0.00" arrival="58.00" arrivalLane="-E1_0" arrivalPos="498.92" arrivalSpeed="19.02" duration="53.00" routeLength="995.07" waitingTime="0.00" waitingCount="0" stopTime="0.00" timeLoss="0.46" rerouteNo="0" devices="tripinfo_SN.1 routing_SN.1" vType="car" speedFactor="0.95" vaporized=""/>
    <tripinfo id="SN.cv.1" depart="12.00" departLane="-E3_1" departPos="5.10" departSpeed="20.88" departDelay="0.00" arrival="60.00" arrivalLane="-E1_1" arrivalPos="498.92" arrivalSpeed="20.88" duration="48.00" routeLength="995.07" waitingTime="0.00" waitingCount="0" stopTime="0.00" timeLoss="0.04" rerouteNo="0" devices="tripinfo_SN.cv.1 routing_SN.cv.1" vType="cv" speedFactor="1.04" vaporized=""/>
    <tripinfo id="NS.0" depart="5.00" departLane="E1_2" departPos="5.10" departSpeed="17.77" departDelay="0.00" arrival="62.00" arrivalLane="E3_0" arrivalPos="501.31" arrivalSpeed="17.77" duration="57.00" routeLength="994.98" waitingTime="0.00" waitingCount="0" stopTime="0.00" timeLoss="0.09" rerouteNo="0" devices="tripinfo_NS.0 routing_NS.0" vType="car" speedFactor="0.88" vaporized=""/>
    <tripinfo id="SE.cv.0" depart="5.00" departLane="-E3_0" departPos="5.10" departSpeed="23.25" departDelay="0.00" arrival="63.00" arrivalLane="E2_0" arrivalPos="508.36" arrivalSpeed="18.09" duration="58.00" routeLength="1004.51" waitingTime="0.00" waitingCount="0" stopTime="0.00" timeLoss="8.29" rerouteNo="0" devices="tripinfo_SE.cv.0 routing_SE.cv.0" vType="cv" speedFactor="1.16" vaporized=""/>
    <tripinfo id="SE.cv.1" depart="7.00" departLane="-E3_0" departPos="5.10" departSpeed="25.51" departDelay="0.00" arrival="70.00" arrivalLane="E2_0" arrivalPos="508.36" arrivalSpeed="19.84" duration="63.00" routeLength="1004.51" waitingTime="0.00" waitingCount="0" stopTime="0.00" timeLoss="17.46" rerouteNo="0" devices="tripinfo_SE.cv.1 routing_SE.cv.1" vType="cv" speedFactor="1.27" vaporized=""/>
    <tripinfo id="EW.0" depart="1.00" departLane="-E2_0" departPos="5.10" departSpeed="16.41" departDelay="0.00" arrival="74.00" arrivalLane="-E0_0" arrivalPos="500.03" arrivalSpeed="16.41" duration="73.00" routeLength="1001.60" waitingTime="1.00" waitingCount="1" stopTime="0.00" timeLoss="11.51" rerouteNo="0" devices="tripinfo_EW.0 routing_EW.0" vType="car" speedFactor="1.05" vaporized=""/>
    <tripinfo id="WE.1" depart="6.00" departLane="E0_1" departPos="5.10" departSpeed="16.50" departDelay="0.00" arrival="74.00" arrivalLane="E2_0" arrivalPos="508.36" arrivalSpeed="16.49" duration="68.00" routeLength="1002.59" waitingTime="0.00" waitingCount="0" stopTime="0.00" timeLoss="6.68" rerouteNo="0" devices="tripinfo_WE.1 routing_WE.1" vType="car" speedFactor="1.05" vaporized=""/>
    <tripinfo id="EN.0" depart="8.00" departLane="-E2_0" departPos="5.10" departSpeed="14.79" departDelay="0.00" arrival="75.00" arrivalLane="-E1_0" arrivalPos="498.92" arrivalSpeed="19.02" duration="67.00" routeLength="1000.49" waitingTime="0.00" waitingCount="0" stopTime="0.00" timeLoss="5.93" rerouteNo="0" devices="tripinfo_EN.0 routing_EN.0" vType="car" speedFactor="0.95" vaporized=""/>
    <tripinfo id="NW.0" depart="17.00" departLane="E1_0" departPos="5.10" departSpeed="23.80" departDelay="0.00" arrival="76.00" arrivalLane="-E0_1" arrivalPos="500.03" arrivalSpeed="18.52" duration="59.00" routeLength="993.70" waitingTime="0.00" waitingCount="0" stopTime="0.00" timeLoss="10.44" rerouteNo="0" devices="tripinfo_NW.0 routing_NW.0" vType="car" speedFactor="1.18" vaporized=""/>
    <tripinfo id="WE.2" depart="13.00" departLane="E0_0" departPos="5.10" departSpeed="16.54" departDelay="0.00" arrival="77.00" arrivalLane="E2_0" arrivalPos="508.36" arrivalSpeed="16.46" duration="64.00" routeLength="1002.59" waitingTime="0.00" waitingCount="0" stopTime="0.00" timeLoss="2.95" rerouteNo="0" devices="tripinfo_WE.2 routing_WE.2" vType="car" speedFactor="1.06" vaporized=""/>
    <tripinfo id="EW.cv.0" depart="11.00" departLane="-E2_1" departPos="5.10" departSpeed="15.44" departDelay="0.00" arrival="78.00" arrivalLane="-E0_0" arrivalPos="500.03" arrivalSpeed="15.42" duration="67.00" routeLength="1001.60" waitingTime="0.00" waitingCount="0" stopTime="0.00" timeLoss="1.40" rerouteNo="0" devices="tripinfo_EW.cv.0 routing_EW.cv.0" vType="cv" speedFactor="0.99" vaporized=""/>
    <tripinfo id="WE.3" depart="17.00" departLane="E0_1" departPos="5.10" departSpeed="15.73" departDelay="0.00" arrival="82.00" arrivalLane="E2_0" arrivalPos="508.36" arrivalSpeed="15.73" duration="65.00" routeLength="1002.59" waitingTime="0.00" waitingCount="0" stopTime="0.00" timeLoss="1.03" rerouteNo="0" devices="tripinfo_WE.3 routing_WE.3" vType="car" speedFactor="1.01" vaporized=""/>
    <tripinfo id="SN.4" depart="25.00" departLane="-E3_2" departPos="5.10" departSpeed="23.18" departDelay="0.00" arrival="84.00" arrivalLane="-E1_1" arrivalPos="498.92" arrivalSpeed="23.18" duration="59.00" routeLength="995.07" waitingTime="2.00" waitingCount="1" stopTime="0.00" timeLoss="15.13" rerouteNo="0" devices="tripinfo_SN.4 routing_SN.4" vType="car" speedFactor="1.15" vaporized=""/>
    <tripinfo id="SN.cv.3" depart="27.00" departLane="-E3_2" departPos="5.10" departSpeed="21.13" departDelay="0.00" arrival="88.00" arrivalLane="-E1_1" arrivalPos="498.92" arrivalSpeed="21.11" duration="61.00" routeLength="995.07" waitingTime="0.00" waitingCount="0" stopTime="0.00" timeLoss="13.18" rerouteNo="0" devices="tripinfo_SN.cv.3 routing_SN.cv.3" vType="cv" speedFactor="1.05" vaporized=""/>
    <tripinfo id="SW.cv.0" depart="13.00" departLane="-E3_3" departPos="5.10" departSpeed="20.94" departDelay="0.00" arrival="91.00" arrivalLane="-E0_1" arrivalPos="500.03" arrivalSpeed="16.29" duration="78.00" routeLength="996.18" waitingTime="12.00" waitingCount="1" stopTime="0.00" timeLoss="23.39" rerouteNo="0" devices="tripinfo_SW.cv.0 routing_SW.cv.0" vType="cv" speedFactor="1.04" vaporized=""/>
    <tripinfo id="NW.cv.0" depart="24.00" departLane="E1_0" departPos="5.10" departSpeed="21.20" departDelay="0.00" arrival="91.00" arrivalLane="-E0_0" arrivalPos="500.03" arrivalSpeed="16.49" duration="67.00" routeLength="993.70" waitingTime="1.00" waitingCount="1" stopTime="0.00" timeLoss="12.84" rerouteNo="0" devices="tripinfo_NW.cv.0 routing_NW.cv.0" vType="cv" speedFactor="1.05" vaporized=""/>
    <tripinfo id="SN.2" depart="6.00" departLane="-E3_2" departPos="5.10" departSpeed="15.38" departDelay="0.00" arrival="93.00" arrivalLane="-E1_0" arrivalPos="498.92" arrivalSpeed="15.38" duration="87.00" routeLength="995.07" waitingTime="12.00" waitingCount="1" stopTime="0.00" timeLoss="21.63" rerouteNo="0" devices="tripinfo_SN.2 routing_SN.2" vType="car" speedFactor="0.76" vaporized=""/>
    <tripinfo id="SW.cv.1" depart="25.00" departLane="-E3_3" departPos="5.10" departSpeed="23.95" departDelay="0.00" arrival="93.00" arrivalLane="-E0_1" arrivalPos="500.03" arrivalSpeed="17.82" duration="68.00" routeLength="996.18" waitingTime="4.00" waitingCount="1" stopTime="0.00" timeLoss="20.18" rerouteNo="0" devices="tripinfo_SW.cv.1 routing_SW.cv.1" vType="cv" speedFactor="1.19" vaporized=""/>
    <tripinfo id="SN.cv.4" depart="30.00" departLane="-E3_2" departPos="5.10" departSpeed="17.89" departDelay="0.00" arrival="93.00" arrivalLane="-E1_1" arrivalPos="498.92" arrivalSpeed="17.89" duration="63.00" routeLength="995.07" waitingTime="0.00" waitingCount="0" stopTime="0.00" timeLoss="7.14" rerouteNo="0" devices="tripinfo_SN.cv.4 routing_SN.cv.4" vType="cv" speedFactor="0.89" vaporized=""/>
    <tripinfo id="SN.3" depart="23.00" departLane="-E3_1" departPos="5.10" departSpeed="20.82" departDelay="0.00" arrival="94.00" arrivalLane="-E1_0" arrivalPos="498.92" arrivalSpeed="17.06" duration="71.00" routeLength="995.07" waitingTime="3.00" waitingCount="1" stopTime="0.00" timeLoss="23.17" rerouteNo="0" devices="tripinfo_SN.3 routing_SN.3" vType="car" speedFactor="1.03" vaporized=""/>
    <tripinfo id="NS.3" depart="20.00" departLane="E1_1" departPos="5.10" departSpeed="21.85" departDelay="0.00" arrival="96.00" arrivalLane="E3_1" arrivalPos="501.31" arrivalSpeed="21.85" duration="76.00" routeLength="994.98" waitingTime="16.00" waitingCount="1" stopTime="0.00" timeLoss="29.67" rerouteNo="0" devices="tripinfo_NS.3 routing_NS.3" vType="car" speedFactor="1.09" vaporized=""/>
    <tripinfo id="SN.cv.2" depart="26.00" departLane="-E3_1" departPos="5.10" departSpeed="20.72" departDelay="0.00" arrival="96.00" arrivalLane="-E1_0" arrivalPos="498.92" arrivalSpeed="18.25" duration="70.00" routeLength="995.07" waitingTime="2.00" waitingCount="1" stopTime="0.00" timeLoss="21.58" rerouteNo="0" devices="tripinfo_SN.cv.2 routing_SN.cv.2" vType="cv" speedFactor="1.03" vaporized=""/>
    <tripinfo id="SN.cv.5" depart="33.00" departLane="-E3_1" departPos="5.10" departSpeed="18.62" departDelay="0.00" arrival="96.00" arrivalLane="-E1_1" arrivalPos="498.92" arrivalSpeed="18.42" duration="63.00" routeLength="995.07" waitingTime="0.00" waitingCount="0" stopTime="0.00" timeLoss="8.87" rerouteNo="0" devices="tripinfo_SN.cv.5 routing_SN.cv.5" vType="cv" speedFactor="0.93" vaporized=""/>
    <tripinfo id="SN.cv.7" depart="40.00" departLane="-E3_2" departPos="5.10" departSpeed="22.36" departDelay="0.00" arrival="97.00" arrivalLane="-E1_1" arrivalPos="498.92" arrivalSpeed="19.26" duration="57.00" routeLength="995.07" waitingTime="0.00" waitingCount="0" stopTime="0.00" timeLoss="12.48" rerouteNo="0" devices="tripinfo_SN.cv.7 routing_SN.cv.7" vType="cv" speedFactor="1.11" vaporized=""/>
    <tripinfo id="NS.cv.0" depart="15.00" departLane="E1_1" departPos="5.10" departSpeed="18.88" departDelay="0.00" arrival="99.00" arrivalLane="E3_0" arrivalPos="501.31" arrivalSpeed="18.88" duration="84.00" routeLength="994.98" waitingTime="19.00" waitingCount="1" stopTime="0.00" timeLoss="30.49" rerouteNo="0" devices="tripinfo_NS.cv.0 routing_NS.cv.0" vType="cv" speedFactor="0.94" vaporized=""/>
    <tripinfo id="SN.5" depart="28.00" departLane="-E3_1" departPos="5.10" departSpeed="16.92" departDelay="0.00" arrival="99.00" arrivalLane="-E1_0" arrivalPos="498.92" arrivalSpeed="16.74" duration="71.00" routeLength="995.07" waitingTime="0.00" waitingCount="0" stopTime="0.00" timeLoss="11.27" rerouteNo="0" devices="tripinfo_SN.5 routing_SN.5" vType="car" speedFactor="0.84" vaporized=""/>
    <tripinfo id="NS.4" depart="26.00" departLane="E1_1" departPos="5.10" departSpeed="19.84" departDelay="0.00" arrival="100.00" arrivalLane="E3_1" arrivalPos="501.31" arrivalSpeed="19.82" duration="74.00" routeLength="994.98" waitingTime="10.00" waitingCount="1" stopTime="0.00" timeLoss="23.54" rerouteNo="0" devices="tripinfo_NS.4 routing_NS.4" vType="car" speedFactor="0.99" vaporized=""/>
    <tripinfo id="SN.cv.6" depart="39.00" departLane="-E3_1" departPos="5.10" departSpeed="18.66" departDelay="0.00" arrival="100.00" arrivalLane="-E1_1" arrivalPos="498.92" arrivalSpeed="18.40" duration="61.00" routeLength="995.07" waitingTime="0.00" waitingCount="0" stopTime="0.00" timeLoss="7.08" rerouteNo="0" devices="tripinfo_SN.cv.6 routing_SN.cv.6" vType="cv" speedFactor="0.93" vaporized=""/>
    <tripinfo id="SN.6" depart="35.00" departLane="-E3_2" departPos="5.10" departSpeed="17.39" departDelay="0.00" arrival="101.00" arrivalLane="-E1_0" arrivalPos="498.92" arrivalSpeed="16.92" duration="66.00" routeLength="995.07" waitingTime="0.00" waitingCount="0" stopTime="0.00" timeLoss="8.14" rerouteNo="0" devices="tripinfo_SN.6 routing_SN.6" vType="car" speedFactor="0.86" vaporized=""/>
    <tripinfo id="SN.7" depart="44.00" departLane="-E3_1" departPos="5.10" departSpeed="24.53" departDelay="0.00" arrival="101.00" arrivalLane="-E1_1" arrivalPos="498.92" arrivalSpeed="19.58" duration="57.00" routeLength="995.07" waitingTime="0.00" waitingCount="0" stopTime="0.00" timeLoss="16.39" rerouteNo="0" devices="tripinfo_SN.7 routing_SN.7" vType="car" speedFactor="1.22" vaporized=""/>
    <tripinfo id="NS.2" depart="17.00" departLane="E1_2" departPos="5.10" departSpeed="17.81" departDelay="0.00" arrival="103.00" arrivalLane="E3_0" arrivalPos="501.31" arrivalSpeed="17.79" duration="86.00" routeLength="994.98" waitingTime="17.00" waitingCount="1" stopTime="0.00" timeLoss="29.54" rerouteNo="0" devices="tripinfo_NS.2 routing_NS.2" vType="car" speedFactor="0.89" vaporized=""/>
    <tripinfo id="SN.cv.8" depart="44.00" departLane="-E3_2" departPos="5.10" departSpeed="19.04" departDelay="0.00" arrival="104.00" arrivalLane="-E1_1" arrivalPos="498.92" arrivalSpeed="18.67" duration="60.00" routeLength="995.07" waitingTime="0.00" waitingCount="0" stopTime="0.00" timeLoss="6.88" rerouteNo="0" devices="tripinfo_SN.cv.8 routing_SN.cv.8" vType="cv" speedFactor="0.95" vaporized=""/>
    <tripinfo id="NS.5" depart="34.00" departLane="E1_1" departPos="5.10" departSpeed="17.69" departDelay="0.00" arrival="105.00" arrivalLane="E3_1" arrivalPos="501.31" arrivalSpeed="17.68" duration="71.00" routeLength="994.98" waitingTime="1.00" waitingCount="1" stopTime="0.00" timeLoss="14.27" rerouteNo="0" devices="tripinfo_NS.5 routing_NS.5" vType="car" speedFactor="0.88" vaporized=""/>
    <tripinfo id="SN.8" depart="47.00" departLane="-E3_1" departPos="5.10" departSpeed="18.67" departDelay="0.00" arrival="105.00" arrivalLane="-E1_0" arrivalPos="498.92" arrivalSpeed="18.39" duration="58.00" routeLength="995.07" waitingTime="0.00" waitingCount="0" stopTime="0.00" timeLoss="4.36" rerouteNo="0" devices="tripinfo_SN.8 routing_SN.8" vType="car" speedFactor="0.93" vaporized=""/>
    <tripinfo id="NS.cv.1" depart="28.00" departLane="E1_2" departPos="5.10" departSpeed="17.73" departDelay="0.00" arrival="106.00" arrivalLane="E3_0" arrivalPos="501.31" arrivalSpeed="17.62" duration="78.00" routeLength="994.98" waitingTime="7.00" waitingCount="1" stopTime="0.00" timeLoss="21.31" rerouteNo="0" devices="tripinfo_NS.cv.1 routing_NS.cv.1" vType="cv" speedFactor="0.88" vaporized=""/>
    <tripinfo id="SN.9" depart="48.00" departLane="-E3_2" departPos="5.10" departSpeed="19.40" departDelay="0.00" arrival="106.00" arrivalLane="-E1_1" arrivalPos="498.92" arrivalSpeed="18.69" duration="58.00" routeLength="995.07" waitingTime="0.00" waitingCount="0" stopTime="0.00" timeLoss="5.95" rerouteNo="0" devices="tripinfo_SN.9 routing_SN.9" vType="car" speedFactor="0.96" vaporized=""/>
    <tripinfo id="SN.cv.9" depart="49.00" departLane="-E3_1" departPos="5.10" departSpeed="20.60" departDelay="0.00" arrival="107.00" arrivalLane="-E1_1" arrivalPos="498.92" arrivalSpeed="19.31" duration="58.00" routeLength="995.07" waitingTime="0.00" waitingCount="0" stopTime="0.00" timeLoss="15.91" rerouteNo="0" devices="tripinfo_SN.cv.9 routing_SN.cv.9" vType="cv" speedFactor="1.18" vaporized=""/>
    <tripinfo id="NS.6" depart="38.00" departLane="E1_1" departPos="5.10" departSpeed="18.19" departDelay="0.00" arrival="108.00" arrivalLane="E3_1" arrivalPos="501.31" arrivalSpeed="18.03" duration="70.00" routeLength="994.98" waitingTime="0.00" waitingCount="0" stopTime="0.00" timeLoss="14.52" rerouteNo="0" devices="tripinfo_NS.6 routing_NS.6" vType="car" speedFactor="0.90" vaporized=""/>
    <tripinfo id="SN.10" depart="54.00" departLane="-E3_2" departPos="5.10" departSpeed="21.04" departDelay="0.00" arrival="109.00" arrivalLane="-E1_0" arrivalPos="498.92" arrivalSpeed="19.44" duration="55.00" routeLength="995.07" waitingTime="0.00" waitingCount="0" stopTime="0.00" timeLoss="7.31" rerouteNo="0" devices="tripinfo_SN.10 routing_SN.10" vType="car" speedFactor="1.05" vaporized=""/>
    <tripinfo id="NS.7" depart="53.00" departLane="E1_1" departPos="5.10" departSpeed="20.21" departDelay="0.00" arrival="110.00" arrivalLane="E3_1" arrivalPos="501.31" arrivalSpeed="19.13" duration="57.00" routeLength="994.98" waitingTime="0.00" waitingCount="0" stopTime="0.00" timeLoss="6.92" rerouteNo="0" devices="tripinfo_NS.7 routing_NS.7" vType="car" speedFactor="1.00" vaporized=""/>
    <tripinfo id="SN.cv.10" depart="57.00" departLane="-E3_2" departPos="5.10" departSpeed="23.80" departDelay="0.00" arrival="110.00" arrivalLane="-E1_1" arrivalPos="498.92" arrivalSpeed="21.37" duration="53.00" routeLength="995.07" waitingTime="0.00" waitingCount="0" stopTime="0.00" timeLoss="11.06" rerouteNo="0" devices="tripinfo_SN.cv.10 routing_SN.cv.10" vType="cv" speedFactor="1.18" vaporized=""/>
    <tripinfo id="SN.11" depart="57.00" departLane="-E3_1" departPos="5.10" departSpeed="22.32" departDelay="0.00" arrival="111.00" arrivalLane="-E1_0" arrivalPos="498.92" arrivalSpeed="19.91" duration="54.00" routeLength="995.07" waitingTime="0.00" waitingCount="0" stopTime="0.00" timeLoss="8.64" rerouteNo="0" devices="tripinfo_SN.11 routing_SN.11" vType="car" speedFactor="1.11" vaporized=""/>
    <tripinfo id="NS.cv.2" depart="35.00" departLane="E1_2" departPos="5.10" departSpeed="15.06" departDelay="0.00" arrival="112.00" arrivalLane="E3_0" arrivalPos="501.31" arrivalSpeed="15.06" duration="77.00" routeLength="994.98" waitingTime="0.00" waitingCount="0" stopTime="0.00" timeLoss="10.04" rerouteNo="0" devices="tripinfo_NS.cv.2 routing_NS.cv.2" vType="cv" speedFactor="0.75" vaporized=""/>
    <tripinfo id="SE.1" depart="43.00" departLane="-E3_0" departPos="5.10" departSpeed="18.53" departDelay="0.00" arrival="112.00" arrivalLane="E2_0" arrivalPos="508.36" arrivalSpeed="14.41" duration="69.00" routeLength="1004.51" waitingTime="0.00" waitingCount="0" stopTime="0.00" timeLoss="6.20" rerouteNo="0" devices="tripinfo_SE.1 routing_SE.1" vType="car" speedFactor="0.92" vaporized=""/>
    <tripinfo id="SN.12" depart="58.00" departLane="-E3_2" departPos="5.10" departSpeed="19.99" departDelay="0.00" arrival="112.00" arrivalLane="-E1_1" arrivalPos="498.92" arrivalSpeed="20.69" duration="54.00" routeLength="995.07" waitingTime="0.00" waitingCount="0" stopTime="0.00" timeLoss="8.84" rerouteNo="0" devices="tripinfo_SN.12 routing_SN.12" vType="car" speedFactor="1.10" vaporized=""/>
    <tripinfo id="NW.1" depart="45.00" departLane="E1_0" departPos="5.10" departSpeed="18.39" departDelay="0.00" arrival="113.00" arrivalLane="-E0_0" arrivalPos="500.03" arrivalSpeed="14.30" duration="68.00" routeLength="993.70" waitingTime="0.00" waitingCount="0" stopTime="0.00" timeLoss="6.14" rerouteNo="0" devices="tripinfo_NW.1 routing_NW.1" vType="car" speedFactor="0.91" vaporized=""/>
    <tripinfo id="NS.8" depart="54.00" departLane="E1_1" departPos="5.10" departSpeed="20.78" departDelay="0.00" arrival="113.00" arrivalLane="E3_0" arrivalPos="501.31" arrivalSpeed="16.79" duration="59.00" routeLength="994.98" waitingTime="0.00" waitingCount="0" stopTime="0.00" timeLoss="10.89" rerouteNo="0" devices="tripinfo_NS.8 routing_NS.8" vType="car" speedFactor="1.03" vaporized=""/>
    <tripinfo id="NS.cv.3" depart="55.00" departLane="E1_2" departPos="5.10" departSpeed="18.32" departDelay="0.00" arrival="113.00" arrivalLane="E3_1" arrivalPos="501.31" arrivalSpeed="18.21" duration="58.00" routeLength="994.98" waitingTime="0.00" waitingCount="0" stopTime="0.00" timeLoss="3.01" rerouteNo="0" devices="tripinfo_NS.cv.3 routing_NS.cv.3" vType="cv" speedFactor="0.91" vaporized=""/>
    <tripinfo id="NS.9" depart="56.00" departLane="E1_1" departPos="5.10" departSpeed="18.30" departDelay="0.00" arrival="115.00" arrivalLane="E3_0" arrivalPos="501.31" arrivalSpeed="17.35" duration="59.00" routeLength="994.98" waitingTime="0.00" waitingCount="0" stopTime="0.00" timeLoss="4.39" rerouteNo="0" devices="tripinfo_NS.9 routing_NS.9" vType="car" speedFactor="0.91" vaporized=""/>
    <tripinfo id="NW.cv.1" depart="54.00" departLane="E1_0" departPos="5.10" departSpeed="20.41" departDelay="0.00" arrival="116.00" arrivalLane="-E0_0" arrivalPos="500.03" arrivalSpeed="15.77" duration="62.00" routeLength="993.70" waitingTime="0.00" waitingCount="0" stopTime="0.00" timeLoss="6.20" rerouteNo="0" devices="tripinfo_NW.cv.1 routing_NW.cv.1" vType="cv" speedFactor="1.01" vaporized=""/>
    <tripinfo id="SE.2" depart="82.00" departLane="-E3_0" departPos="5.10" departSpeed="19.35" departDelay="0.00" arrival="115.00" arrivalLane="E2_0" arrivalPos="508.36" arrivalSpeed="4.93" duration="33.00" routeLength="1004.51" waitingTime="0.00" waitingCount="0" stopTime="0.00" timeLoss="7.17" rerouteNo="0" devices="tripinfo_SE.2 routing_SE.2" vType="car" speedFactor="0.96" vaporized="teleport"/>
    <tripinfo id="WN.0" depart="14.00" departLane="E0_2" departPos="5.10" departSpeed="17.33" departDelay="0.00" arrival="117.00" arrivalLane="-E1_0" arrivalPos="498.92" arrivalSpeed="22.22" duration="103.00" routeLength="993.15" waitingTime="39.00" waitingCount="1" stopTime="0.00" timeLoss="51.23" rerouteNo="0" devices="tripinfo_WN.0 routing_WN.0" vType="car" speedFactor="1.11" vaporized=""/>
    <tripinfo id="WN.cv.0" depart="21.00" departLane="E0_3" departPos="5.10" departSpeed="15.96" departDelay="0.00" arrival="118.00" arrivalLane="-E1_0" arrivalPos="498.92" arrivalSpeed="19.55" duration="97.00" routeLength="993.15" waitingTime="29.00" waitingCount="1" stopTime="0.00" timeLoss="41.46" rerouteNo="0" devices="tripinfo_WN.cv.0 routing_WN.cv.0" vType="cv" speedFactor="1.02" vaporized=""/>
    <tripinfo id="ES.1" depart="19.00" departLane="-E2_3" departPos="5.10" departSpeed="14.72" departDelay="0.00" arrival="120.00" arrivalLane="E3_1" arrivalPos="501.31" arrivalSpeed="18.93" duration="101.00" routeLength="1002.88" waitingTime="28.00" waitingCount="1" stopTime="0.00" timeLoss="39.74" rerouteNo="0" devices="tripinfo_ES.1 routing_ES.1" vType="car" speedFactor="0.94" vaporized=""/>
    <tripinfo id="ES.2" depart="45.00" departLane="-E2_3" departPos="5.10" departSpeed="12.70" departDelay="0.00" arrival="126.00" arrivalLane="E3_0" arrivalPos="501.31" arrivalSpeed="16.33" duration="81.00" routeLength="1002.88" waitingTime="0.00" waitingCount="0" stopTime="0.00" timeLoss="10.03" rerouteNo="0" devices="tripinfo_ES.2 routing_ES.2" vType="car" speedFactor="0.81" vaporized=""/>
    <tripinfo id="ES.0" depart="14.00" departLane="-E2_2" departPos="5.10" departSpeed="11.33" departDelay="0.00" arrival="127.00" arrivalLane="E3_0" arrivalPos="501.31" arrivalSpeed="13.92" duration="113.00" routeLength="1002.88" waitingTime="23.00" waitingCount="1" stopTime="0.00" timeLoss="33.98" rerouteNo="0" devices="tripinfo_ES.0 routing_ES.0" vType="car" speedFactor="0.72" vaporized=""/>
    <tripinfo id="SE.cv.2" depart="52.00" departLane="-E3_0" departPos="5.10" departSpeed="16.62" departDelay="0.00" arrival="131.00" arrivalLane="E2_0" arrivalPos="508.36" arrivalSpeed="12.93" duration="79.00" routeLength="1004.51" waitingTime="0.00" waitingCount="0" stopTime="0.00" timeLoss="9.46" rerouteNo="0" devices="tripinfo_SE.cv.2 routing_SE.cv.2" vType="cv" speedFactor="0.83" vaporized=""/>
    <tripinfo id="SE.cv.3" depart="69.00" departLane="-E3_0" departPos="5.10" departSpeed="21.14" departDelay="0.00" arrival="133.00" arrivalLane="E2_1" arrivalPos="508.36" arrivalSpeed="16.45" duration="64.00" routeLength="1004.51" waitingTime="0.00" waitingCount="0" stopTime="0.00" timeLoss="9.23" rerouteNo="0" devices="tripinfo_SE.cv.3 routing_SE.cv.3" vType="cv" speedFactor="1.05" vaporized=""/>
    <tripinfo id="WE.5" depart="26.00" departLane="E0_1" departPos="5.10" departSpeed="17.70" departDelay="0.00" arrival="135.00" arrivalLane="E2_0" arrivalPos="508.36" arrivalSpeed="17.61" duration="109.00" routeLength="1002.59" waitingTime="39.00" waitingCount="1" stopTime="0.00" timeLoss="51.64" rerouteNo="0" devices="tripinfo_WE.5 routing_WE.5" vType="car" speedFactor="1.13" vaporized=""/>
    <tripinfo id="WS.0" depart="25.00" departLane="E0_0" departPos="5.10" departSpeed="13.19" departDelay="0.00" arrival="137.00" arrivalLane="E3_0" arrivalPos="501.31" arrivalSpeed="16.96" duration="112.00" routeLength="995.54" waitingTime="32.00" waitingCount="1" stopTime="0.00" timeLoss="44.12" rerouteNo="0" devices="tripinfo_WS.0 routing_WS.0" vType="car" speedFactor="0.84" vaporized=""/>
    <tripinfo id="WE.4" depart="21.00" departLane="E0_0" departPos="5.10" departSpeed="15.29" departDelay="0.00" arrival="139.00" arrivalLane="E2_0" arrivalPos="508.36" arrivalSpeed="15.28" duration="118.00" routeLength="1002.59" waitingTime="40.00" waitingCount="1" stopTime="0.00" timeLoss="51.70" rerouteNo="0" devices="tripinfo_WE.4 routing_WE.4" vType="car" speedFactor="0.98" vaporized=""/>
    <tripinfo id="WE.6" depart="32.00" departLane="E0_1" departPos="5.10" departSpeed="15.77" departDelay="0.00" arrival="139.00" arrivalLane="E2_1" arrivalPos="508.36" arrivalSpeed="15.77" duration="107.00" routeLength="1002.59" waitingTime="31.00" waitingCount="1" stopTime="0.00" timeLoss="42.95" rerouteNo="0" devices="tripinfo_WE.6 routing_WE.6" vType="car" speedFactor="1.01" vaporized=""/>
    <tripinfo id="WS.1" depart="34.00" departLane="E0_0" departPos="5.10" departSpeed="13.27" departDelay="0.00" arrival="140.00" arrivalLane="E3_0" arrivalPos="501.31" arrivalSpeed="16.97" duration="106.00" routeLength="995.54" waitingTime="25.00" waitingCount="1" stopTime="0.00" timeLoss="38.59" rerouteNo="0" devices="tripinfo_WS.1 routing_WS.1" vType="car" speedFactor="0.85" vaporized=""/>
    <tripinfo id="WE.7" depart="48.00" departLane="E0_1" departPos="5.10" departSpeed="15.40" departDelay="0.00" arrival="143.00" arrivalLane="E2_0" arrivalPos="508.36" arrivalSpeed="15.38" duration="95.00" routeLength="1002.59" waitingTime="17.00" waitingCount="1" stopTime="0.00" timeLoss="29.65" rerouteNo="0" devices="tripinfo_WE.7 routing_WE.7" vType="car" speedFactor="0.98" vaporized=""/>
    <tripinfo id="EN.cv.0" depart="66.00" departLane="-E2_0" departPos="5.10" departSpeed="12.52" departDelay="0.00" arrival="143.00" arrivalLane="-E1_0" arrivalPos="498.92" arrivalSpeed="16.10" duration="77.00" routeLength="1000.49" waitingTime="0.00" waitingCount="0" stopTime="0.00" timeLoss="5.38" rerouteNo="0" devices="tripinfo_EN.cv.0 routing_EN.cv.0" vType="cv" speedFactor="0.80" vaporized=""/>
    <tripinfo id="EW.cv.1" depart="18.00" departLane="-E2_0" departPos="5.10" departSpeed="11.73" departDelay="0.00" arrival="144.00" arrivalLane="-E0_0" arrivalPos="500.03" arrivalSpeed="11.73" duration="126.00" routeLength="1001.60" waitingTime="32.00" waitingCount="1" stopTime="0.00" timeLoss="40.34" rerouteNo="0" devices="tripinfo_EW.cv.1 routing_EW.cv.1" vType="cv" speedFactor="0.75" vaporized=""/>