<?xml version="1.0" encoding="UTF-8"?>

<!-- generated on 2023-01-30 10:31:20 by Eclipse SUMO sumo Version 1.13.0
<configuration xmlns:xsi="http://www.w3.org/2001/XMLSchema-instance" xsi:noNamespaceSchemaLocation="http://sumo.dlr.de/xsd/sumoConfiguration.xsd">

    <input>
        <net-file value="data/Eastway-Central.net.xml"/>
        <route-files value="data/cav40.rou.xml"/>
        <additional-files value="data/Eastway-Central.add.xml"/>
    </input>

    <output>
        <tripinfo-output value="result\2023-01-30-10-22-18\31_tripinfo.xml"/>
    </output>

    <report>
        <no-warnings value="true"/>
        <no-step-log value="true"/>
    </report>

    <traci_server>
        <remote-port value="50417"/>
    </traci_server>

    <random_number>
        <seed value="30"/>
    </random_number>

</configuration>
-->

<tripinfos xmlns:xsi="http://www.w3.org/2001/XMLSchema-instance" xsi:noNamespaceSchemaLocation="http://sumo.dlr.de/xsd/tripinfo_file.xsd">
    <tripinfo id="BNS.0" depart="0.00" departLane="E1_1" departPos="12.10" departSpeed="20.12" departDelay="0.00" arrival="50.00" arrivalLane="E3_0" arrivalPos="501.31" arrivalSpeed="20.12" duration="50.00" routeLength="987.98" waitingTime="0.00" waitingCount="0" stopTime="0.00" timeLoss="0.19" rerouteNo="0" devices="tripinfo_BNS.0 routing_BNS.0" vType="bus" speedFactor="1.00" vaporized=""/>
    <tripinfo id="NS.cv.0" depart="1.00" departLane="E1_2" departPos="5.10" departSpeed="20.58" departDelay="0.00" arrival="50.00" arrivalLane="E3_1" arrivalPos="501.31" arrivalSpeed="20.58" duration="49.00" routeLength="994.98" waitingTime="0.00" waitingCount="0" stopTime="0.00" timeLoss="0.09" rerouteNo="0" devices="tripinfo_NS.cv.0 routing_NS.cv.0" vType="cv" speedFactor="1.02" vaporized=""/>
    <tripinfo id="EW.0" depart="2.00" departLane="-E2_0" departPos="5.10" departSpeed="18.37" departDelay="0.00" arrival="66.00" arrivalLane="-E0_0" arrivalPos="500.03" arrivalSpeed="18.37" duration="64.00" routeLength="1001.60" waitingTime="0.00" waitingCount="0" stopTime="0.00" timeLoss="8.98" rerouteNo="0" devices="tripinfo_EW.0 routing_EW.0" vType="car" speedFactor="1.17" vaporized=""/>
    <tripinfo id="NW.0" depart="9.00" departLane="E1_0" departPos="5.10" departSpeed="20.69" departDelay="0.00" arrival="72.00" arrivalLane="-E0_0" arrivalPos="500.03" arrivalSpeed="16.09" duration="63.00" routeLength="993.70" waitingTime="0.00" waitingCount="0" stopTime="0.00" timeLoss="7.48" rerouteNo="0" devices="tripinfo_NW.0 routing_NW.0" vType="car" speedFactor="1.03" vaporized=""/>
    <tripinfo id="SE.cv.0" depart="6.00" departLane="-E3_0" departPos="5.10" departSpeed="20.25" departDelay="0.00" arrival="73.00" arrivalLane="E2_0" arrivalPos="508.36" arrivalSpeed="15.75" duration="67.00" routeLength="1004.51" waitingTime="0.00" waitingCount="0" stopTime="0.00" timeLoss="9.81" rerouteNo="0" devices="tripinfo_SE.cv.0 routing_SE.cv.0" vType="cv" speedFactor="1.01" vaporized=""/>
    <tripinfo id="WE.0" depart="4.00" departLane="E0_0" departPos="5.10" departSpeed="13.02" departDelay="0.00" arrival="82.00" arrivalLane="E2_0" arrivalPos="508.36" arrivalSpeed="13.02" duration="78.00" routeLength="1002.59" waitingTime="0.00" waitingCount="0" stopTime="0.00" timeLoss="0.94" rerouteNo="0" devices="tripinfo_WE.0 routing_WE.0" vType="car" speedFactor="0.83" vaporized=""/>
    <tripinfo id="NS.1" depart="10.00" departLane="E1_2" departPos="5.10" departSpeed="21.62" departDelay="0.00" arrival="82.00" arrivalLane="E3_0" arrivalPos="501.31" arrivalSpeed="21.62" duration="72.00" routeLength="994.98" waitingTime="13.00" waitingCount="1" stopTime="0.00" timeLoss="25.39" rerouteNo="0" devices="tripinfo_NS.1 routing_NS.1" vType="car" speedFactor="1.07" vaporized=""/>
    <tripinfo id="NS.3" depart="18.00" departLane="E1_2" departPos="5.10" departSpeed="21.98" departDelay="0.00" arrival="84.00" arrivalLane="E3_1" arrivalPos="501.31" arrivalSpeed="21.98" duration="66.00" routeLength="994.98" waitingTime="6.00" waitingCount="1" stopTime="0.00" timeLoss="20.30" rerouteNo="0" devices="tripinfo_NS.3 routing_NS.3" vType="car" speedFactor="1.09" vaporized=""/>
    <tripinfo id="NS.0" depart="4.00" departLane="E1_1" departPos="5.10" departSpeed="18.05" departDelay="0.00" arrival="86.00" arrivalLane="E3_0" arrivalPos="501.31" arrivalSpeed="18.04" duration="82.00" routeLength="994.98" waitingTime="16.00" waitingCount="1" stopTime="0.00" timeLoss="26.51" rerouteNo="0" devices="tripinfo_NS.0 routing_NS.0" vType="car" speedFactor="0.90" vaporized=""/>
    <tripinfo id="NS.2" depart="16.00" departLane="E1_1" departPos="5.10" departSpeed="20.55" departDelay="0.00" arrival="88.00" arrivalLane="E3_0" arrivalPos="501.31" arrivalSpeed="19.54" duration="72.00" routeLength="994.98" waitingTime="7.00" waitingCount="1" stopTime="0.00" timeLoss="23.18" rerouteNo="0" devices="tripinfo_NS.2 routing_NS.2" vType="car" speedFactor="1.02" vaporized=""/>
    <tripinfo id="NS.4" depart="19.00" departLane="E1_1" departPos="5.10" departSpeed="19.77" departDelay="0.00" arrival="88.00" arrivalLane="E3_1" arrivalPos="501.31" arrivalSpeed="19.75" duration="69.00" routeLength="994.98" waitingTime="5.00" waitingCount="1" stopTime="0.00" timeLoss="18.61" rerouteNo="0" devices="tripinfo_NS.4 routing_NS.4" vType="car" speedFactor="0.98" vaporized=""/>
    <tripinfo id="WE.1" depart="7.00" departLane="E0_1" departPos="5.10" departSpeed="12.42" departDelay="0.00" arrival="89.00" arrivalLane="E2_0" arrivalPos="508.36" arrivalSpeed="12.42" duration="82.00" routeLength="1002.59" waitingTime="0.00" waitingCount="0" stopTime="0.00" timeLoss="1.03" rerouteNo="0" devices="tripinfo_WE.1 routing_WE.1" vType="car" speedFactor="0.79" vaporized=""/>
    <tripinfo id="NE.cv.0" depart="12.00" departLane="E1_3" departPos="5.10" departSpeed="19.65" departDelay="0.00" arrival="91.00" arrivalLane="E2_1" arrivalPos="508.36" arrivalSpeed="15.17" duration="79.00" routeLength="1002.03" waitingTime="9.00" waitingCount="1" stopTime="0.00" timeLoss="20.18" rerouteNo="0" devices="tripinfo_NE.cv.0 routing_NE.cv.0" vType="cv" speedFactor="0.98" vaporized=""/>
    <tripinfo id="NS.6" depart="23.00" departLane="E1_1" departPos="5.10" departSpeed="20.06" departDelay="0.00" arrival="91.00" arrivalLane="E3_1" arrivalPos="501.31" arrivalSpeed="19.86" duration="68.00" routeLength="994.98" waitingTime="1.00" waitingCount="1" stopTime="0.00" timeLoss="18.02" rerouteNo="0" devices="tripinfo_NS.6 routing_NS.6" vType="car" speedFactor="1.00" vaporized=""/>
    <tripinfo id="NS.5" depart="21.00" departLane="E1_2" departPos="5.10" departSpeed="17.40" departDelay="0.00" arrival="92.00" arrivalLane="E3_0" arrivalPos="501.31" arrivalSpeed="17.37" duration="71.00" routeLength="994.98" waitingTime="0.00" waitingCount="0" stopTime="0.00" timeLoss="13.14" rerouteNo="0" devices="tripinfo_NS.5 routing_NS.5" vType="car" speedFactor="0.86" vaporized=""/>
    <tripinfo id="SE.cv.1" depart="25.00" departLane="-E3_0" departPos="5.10" departSpeed="15.97" departDelay="1.00" arrival="93.00" arrivalLane="E2_1" arrivalPos="508.36" arrivalSpeed="15.85" duration="68.00" routeLength="1004.51" waitingTime="0.00" waitingCount="0" stopTime="0.00" timeLoss="12.92" rerouteNo="0" devices="tripinfo_SE.cv.1 routing_SE.cv.1" vType="cv" speedFactor="1.04" vaporized=""/>
    <tripinfo id="SN.cv.1" depart="8.00" departLane="-E3_2" departPos="5.10" departSpeed="19.62" departDelay="0.00" arrival="94.00" arrivalLane="-E1_0" arrivalPos="498.92" arrivalSpeed="19.62" duration="86.00" routeLength="995.07" waitingTime="23.00" waitingCount="1" stopTime="0.00" timeLoss="34.50" rerouteNo="0" devices="tripinfo_SN.cv.1 routing_SN.cv.1" vType="cv" speedFactor="0.98" vaporized=""/>
    <tripinfo id="SE.0" depart="24.00" departLane="-E3_0" departPos="5.10" departSpeed="18.42" departDelay="0.00" arrival="94.00" arrivalLane="E2_0" arrivalPos="508.36" arrivalSpeed="14.32" duration="70.00" routeLength="1004.51" waitingTime="0.00" waitingCount="0" stopTime="0.00" timeLoss="7.16" rerouteNo="0" devices="tripinfo_SE.0 routing_SE.0" vType="car" speedFactor="0.92" vaporized=""/>
    <tripinfo id="NS.7" depart="28.00" departLane="E1_1" departPos="5.10" departSpeed="17.83" departDelay="0.00" arrival="94.00" arrivalLane="E3_0" arrivalPos="501.31" arrivalSpeed="17.51" duration="66.00" routeLength="994.98" waitingTime="0.00" waitingCount="0" stopTime="0.00" timeLoss="10.13" rerouteNo="0" devices="tripinfo_NS.7 routing_NS.7" vType="car" speedFactor="0.89" vaporized=""/>
    <tripinfo id="NS.cv.1" depart="28.00" departLane="E1_2" departPos="5.10" departSpeed="18.53" departDelay="0.00" arrival="94.00" arrivalLane="E3_1" arrivalPos="501.31" arrivalSpeed="18.45" duration="66.00" routeLength="994.98" waitingTime="0.00" waitingCount="0" stopTime="0.00" timeLoss="12.30" rerouteNo="0" devices="tripinfo_NS.cv.1 routing_NS.cv.1" vType="cv" speedFactor="0.92" vaporized=""/>
    <tripinfo id="SN.cv.0" depart="5.00" departLane="-E3_1" departPos="5.10" departSpeed="18.04" departDelay="0.00" arrival="96.00" arrivalLane="-E1_1" arrivalPos="498.92" arrivalSpeed="17.98" duration="91.00" routeLength="995.07" waitingTime="24.00" waitingCount="1" stopTime="0.00" timeLoss="35.38" rerouteNo="0" devices="tripinfo_SN.cv.0 routing_SN.cv.0" vType="cv" speedFactor="0.90" vaporized=""/>
    <tripinfo id="ES.cv.0" depart="9.00" departLane="-E2_2" departPos="5.10" departSpeed="15.68" departDelay="0.00" arrival="95.00" arrivalLane="E3_0" arrivalPos="501.31" arrivalSpeed="2.60" duration="86.00" routeLength="1002.88" waitingTime="45.00" waitingCount="1" stopTime="0.00" timeLoss="53.94" rerouteNo="0" devices="tripinfo_ES.cv.0 routing_ES.cv.0" vType="cv" speedFactor="1.00" vaporized="teleport"/>
    <tripinfo id="NS.8" depart="29.00" departLane="E1_2" departPos="5.10" departSpeed="15.98" departDelay="0.00" arrival="96.00" arrivalLane="E3_1" arrivalPos="501.31" arrivalSpeed="20.14" duration="67.00" routeLength="994.98" waitingTime="0.00" waitingCount="0" stopTime="0.00" timeLoss="20.73" rerouteNo="0" devices="tripinfo_NS.8 routing_NS.8" vType="car" speedFactor="1.07" vaporized=""/>
    <tripinfo id="NS.9" depart="31.00" departLane="E1_1" departPos="5.10" departSpeed="22.81" departDelay="0.00" arrival="96.00" arrivalLane="E3_0" arrivalPos="501.31" arrivalSpeed="19.94" duration="65.00" routeLength="994.98" waitingTime="0.00" waitingCount="0" stopTime="0.00" timeLoss="20.89" rerouteNo="0" devices="tripinfo_NS.9 routing_NS.9" vType="car" speedFactor="1.13" vaporized=""/>
    <tripinfo id="SN.cv.2" depart="13.00" departLane="-E3_1" departPos="5.10" departSpeed="18.29" departDelay="0.00" arrival="98.00" arrivalLane="-E1_1" arrivalPos="498.92" arrivalSpeed="17.87" duration="85.00" routeLength="995.07" waitingTime="17.00" waitingCount="1" stopTime="0.00" timeLoss="30.44" rerouteNo="0" devices="tripinfo_SN.cv.2 routing_SN.cv.2" vType="cv" speedFactor="0.91" vaporized=""/>
    <tripinfo id="SN.1" depart="17.00" departLane="-E3_1" departPos="5.10" departSpeed="21.21" departDelay="0.00" arrival="98.00" arrivalLane="-E1_0" arrivalPos="498.92" arrivalSpeed="19.76" duration="81.00" routeLength="995.07" waitingTime="14.00" waitingCount="1" stopTime="0.00" timeLoss="33.46" rerouteNo="0" devices="tripinfo_SN.1 routing_SN.1" vType="car" speedFactor="1.05" vaporized=""/>
    <tripinfo id="NS.cv.2" depart="35.00" departLane="E1_2" departPos="5.10" departSpeed="22.83" departDelay="0.00" arrival="98.00" arrivalLane="E3_1" arrivalPos="501.31" arrivalSpeed="20.82" duration="63.00" routeLength="994.98" waitingTime="0.00" waitingCount="0" stopTime="0.00" timeLoss="18.88" rerouteNo="0" devices="tripinfo_NS.cv.2 routing_NS.cv.2" vType="cv" speedFactor="1.13" vaporized=""/>
    <tripinfo id="WS.0" depart="25.00" departLane="E0_0" departPos="5.10" departSpeed="14.27" departDelay="0.00" arrival="98.00" arrivalLane="E3_0" arrivalPos="501.31" arrivalSpeed="5.10" duration="73.00" routeLength="995.54" waitingTime="28.00" waitingCount="1" stopTime="0.00" timeLoss="38.30" rerouteNo="0" devices="tripinfo_WS.0 routing_WS.0" vType="car" speedFactor="0.91" vaporized="teleport"/>
    <tripinfo id="NS.10" depart="40.00" departLane="E1_1" departPos="5.10" departSpeed="21.51" departDelay="0.00" arrival="99.00" arrivalLane="E3_0" arrivalPos="501.31" arrivalSpeed="20.58" duration="59.00" routeLength="994.98" waitingTime="0.00" waitingCount="0" stopTime="0.00" timeLoss="11.94" rerouteNo="0" devices="tripinfo_NS.10 routing_NS.10" vType="car" speedFactor="1.07" vaporized=""/>
    <tripinfo id="SN.cv.3" depart="21.00" departLane="-E3_1" departPos="5.10" departSpeed="20.23" departDelay="0.00" arrival="100.00" arrivalLane="-E1_0" arrivalPos="498.92" arrivalSpeed="19.06" duration="79.00" routeLength="995.07" waitingTime="10.00" waitingCount="1" stopTime="0.00" timeLoss="29.53" rerouteNo="0" devices="tripinfo_SN.cv.3 routing_SN.cv.3" vType="cv" speedFactor="1.01" vaporized=""/>
    <tripinfo id="SN.0" depart="16.00" departLane="-E3_2" departPos="5.10" departSpeed="19.35" departDelay="0.00" arrival="101.00" arrivalLane="-E1_1" arrivalPos="498.92" arrivalSpeed="18.96" duration="85.00" routeLength="995.07" waitingTime="17.00" waitingCount="1" stopTime="0.00" timeLoss="32.63" rerouteNo="0" devices="tripinfo_SN.0 routing_SN.0" vType="car" speedFactor="0.96" vaporized=""/>
    <tripinfo id="SN.3" depart="26.00" departLane="-E3_2" departPos="5.10" departSpeed="19.97" departDelay="0.00" arrival="102.00" arrivalLane="-E1_0" arrivalPos="498.92" arrivalSpeed="18.54" duration="76.00" routeLength="995.07" waitingTime="6.00" waitingCount="1" stopTime="0.00" timeLoss="26.16" rerouteNo="0" devices="tripinfo_SN.3 routing_SN.3" vType="car" speedFactor="0.99" vaporized=""/>
    <tripinfo id="SN.2" depart="19.00" departLane="-E3_2" departPos="5.10" departSpeed="20.25" departDelay="0.00" arrival="103.00" arrivalLane="-E1_1" arrivalPos="498.92" arrivalSpeed="19.36" duration="84.00" routeLength="995.07" waitingTime="16.00" waitingCount="1" stopTime="0.00" timeLoss="33.94" rerouteNo="0" devices="tripinfo_SN.2 routing_SN.2" vType="car" speedFactor="1.01" vaporized=""/>
    <tripinfo id="SN.cv.4" depart="33.00" departLane="-E3_1" departPos="5.10" departSpeed="18.45" departDelay="0.00" arrival="105.00" arrivalLane="-E1_0" arrivalPos="498.92" arrivalSpeed="18.24" duration="72.00" routeLength="995.07" waitingTime="0.00" waitingCount="0" stopTime="0.00" timeLoss="17.65" rerouteNo="0" devices="tripinfo_SN.cv.4 routing_SN.cv.4" vType="cv" speedFactor="0.92" vaporized=""/>
    <tripinfo id="SN.4" depart="31.00" departLane="-E3_1" departPos="5.10" departSpeed="17.95" departDelay="0.00" arrival="106.00" arrivalLane="-E1_1" arrivalPos="498.92" arrivalSpeed="17.84" duration="75.00" routeLength="995.07" waitingTime="3.00" waitingCount="1" stopTime="0.00" timeLoss="18.60" rerouteNo="0" devices="tripinfo_SN.4 routing_SN.4" vType="car" speedFactor="0.89" vaporized=""/>
    <tripinfo id="NS.11" depart="50.00" departLane="E1_1" departPos="5.10" departSpeed="18.12" departDelay="0.00" arrival="106.00" arrivalLane="E3_1" arrivalPos="501.31" arrivalSpeed="18.12" duration="56.00" routeLength="994.98" waitingTime="0.00" waitingCount="0" stopTime="0.00" timeLoss="1.05" rerouteNo="0" devices="tripinfo_NS.11 routing_NS.11" vType="car" speedFactor="0.90" vaporized=""/>
    <tripinfo id="SE.cv.2" depart="36.00" departLane="-E3_0" departPos="5.10" departSpeed="17.82" departDelay="0.00" arrival="107.00" arrivalLane="E2_0" arrivalPos="508.36" arrivalSpeed="13.86" duration="71.00" routeLength="1004.51" waitingTime="0.00" waitingCount="0" stopTime="0.00" timeLoss="6.02" rerouteNo="0" devices="tripinfo_SE.cv.2 routing_SE.cv.2" vType="cv" speedFactor="0.89" vaporized=""/>
    <tripinfo id="SN.5" depart="33.00" departLane="-E3_2" departPos="5.10" departSpeed="17.51" departDelay="0.00" arrival="108.00" arrivalLane="-E1_1" arrivalPos="498.92" arrivalSpeed="17.29" duration="75.00" routeLength="995.07" waitingTime="2.00" waitingCount="1" stopTime="0.00" timeLoss="18.06" rerouteNo="0" devices="tripinfo_SN.5 routing_SN.5" vType="car" speedFactor="0.87" vaporized=""/>
    <tripinfo id="SN.7" depart="39.00" departLane="-E3_1" departPos="5.10" departSpeed="17.89" departDelay="0.00" arrival="108.00" arrivalLane="-E1_0" arrivalPos="498.92" arrivalSpeed="17.75" duration="69.00" routeLength="995.07" waitingTime="0.00" waitingCount="0" stopTime="0.00" timeLoss="12.74" rerouteNo="0" devices="tripinfo_SN.7 routing_SN.7" vType="car" speedFactor="0.89" vaporized=""/>
    <tripinfo id="SN.6" depart="35.00" departLane="-E3_2" departPos="5.10" departSpeed="19.42" departDelay="0.00" arrival="110.00" arrivalLane="-E1_1" arrivalPos="498.92" arrivalSpeed="19.87" duration="75.00" routeLength="995.07" waitingTime="2.00" waitingCount="1" stopTime="0.00" timeLoss="30.78" rerouteNo="0" devices="tripinfo_SN.6 routing_SN.6" vType="car" speedFactor="1.13" vaporized=""/>
    <tripinfo id="SE.1" depart="44.00" departLane="-E3_0" departPos="5.10" departSpeed="19.90" departDelay="0.00" arrival="110.00" arrivalLane="E2_1" arrivalPos="508.36" arrivalSpeed="15.43" duration="66.00" routeLength="1004.51" waitingTime="0.00" waitingCount="0" stopTime="0.00" timeLoss="7.79" rerouteNo="0" devices="tripinfo_SE.1 routing_SE.1" vType="car" speedFactor="0.99" vaporized=""/>
    <tripinfo id="SN.8" depart="45.00" departLane="-E3_2" departPos="5.10" departSpeed="17.13" departDelay="0.00" arrival="111.00" arrivalLane="-E1_0" arrivalPos="498.92" arrivalSpeed="17.03" duration="66.00" routeLength="995.07" waitingTime="0.00" waitingCount="0" stopTime="0.00" timeLoss="7.24" rerouteNo="0" devices="tripinfo_SN.8 routing_SN.8" vType="car" speedFactor="0.85" vaporized=""/>
    <tripinfo id="SE.2" depart="45.00" departLane="-E3_0" departPos="5.10" departSpeed="17.38" departDelay="0.00" arrival="112.00" arrivalLane="E2_0" arrivalPos="508.36" arrivalSpeed="16.71" duration="67.00" routeLength="1004.51" waitingTime="0.00" waitingCount="0" stopTime="0.00" timeLoss="12.89" rerouteNo="0" devices="tripinfo_SE.2 routing_SE.2" vType="car" speedFactor="1.07" vaporized=""/>
    <tripinfo id="SN.9" depart="47.00" departLane="-E3_1" departPos="5.10" departSpeed="24.25" departDelay="0.00" arrival="112.00" arrivalLane="-E1_1" arrivalPos="498.92" arrivalSpeed="20.74" duration="65.00" routeLength="995.07" waitingTime="0.00" waitingCount="0" stopTime="0.00" timeLoss="23.12" rerouteNo="0" devices="tripinfo_SN.9 routing_SN.9" vType="car" speedFactor="1.21" vaporized=""/>
    <tripinfo id="SN.cv.5" depart="50.00" departLane="-E3_2" departPos="5.10" departSpeed="22.14" departDelay="0.00" arrival="113.00" arrivalLane="-E1_1" arrivalPos="498.92" arrivalSpeed="19.19" duration="63.00" routeLength="995.07" waitingTime="0.00" waitingCount="0" stopTime="0.00" timeLoss="17.82" rerouteNo="0" devices="tripinfo_SN.cv.5 routing_SN.cv.5" vType="cv" speedFactor="1.10" vaporized=""/>
    <tripinfo id="NW.cv.2" depart="80.00" departLane="E1_0" departPos="5.10" departSpeed="18.53" departDelay="0.00" arrival="112.00" arrivalLane="-E0_0" arrivalPos="500.03" arrivalSpeed="5.36" duration="32.00" routeLength="993.70" waitingTime="0.00" waitingCount="0" stopTime="0.00" timeLoss="5.17" rerouteNo="0" devices="tripinfo_NW.cv.2 routing_NW.cv.2" vType="cv" speedFactor="0.92" vaporized="teleport"/>
    <tripinfo id="SN.cv.6" depart="52.00" departLane="-E3_1" departPos="5.10" departSpeed="17.18" departDelay="0.00" arrival="114.00" arrivalLane="-E1_0" arrivalPos="498.92" arrivalSpeed="17.04" duration="62.00" routeLength="995.07" waitingTime="0.00" waitingCount="0" stopTime="0.00" timeLoss="3.11" rerouteNo="0" devices="tripinfo_SN.cv.6 routing_SN.cv.6" vType="cv" speedFactor="0.85" vaporized=""/>
    <tripinfo id="SN.10" depart="53.00" departLane="-E3_2" departPos="5.10" departSpeed="20.08" departDelay="0.00" arrival="115.00" arrivalLane="-E1_1" arrivalPos="498.92" arrivalSpeed="18.89" duration="62.00" routeLength="995.07" waitingTime="0.00" waitingCount="0" stopTime="0.00" timeLoss="12.06" rerouteNo="0" devices="tripinfo_SN.10 routing_SN.10" vType="car" speedFactor="1.00" vaporized=""/>
    <tripinfo id="SN.11" depart="54.00" departLane="-E3_1" departPos="5.10" departSpeed="18.25" departDelay="0.00" arrival="115.00" arrivalLane="-E1_0" arrivalPos="498.92" arrivalSpeed="17.85" duration="61.00" routeLength="995.07" waitingTime="0.00" waitingCount="0" stopTime="0.00" timeLoss="11.96" rerouteNo="0" devices="tripinfo_SN.11 routing_SN.11" vType="car" speedFactor="1.01" vaporized=""/>
    <tripinfo id="SE.3" depart="47.00" departLane="-E3_0" departPos="5.10" departSpeed="18.10" departDelay="0.00" arrival="116.00" arrivalLane="E2_0" arrivalPos="508.36" arrivalSpeed="15.67" duration="69.00" routeLength="1004.51" waitingTime="0.00" waitingCount="0" stopTime="0.00" timeLoss="10.99" rerouteNo="0" devices="tripinfo_SE.3 routing_SE.3" vType="car" speedFactor="1.00" vaporized=""/>
    <tripinfo id="SN.12" depart="55.00" departLane="-E3_2" departPos="5.10" departSpeed="21.44" departDelay="0.00" arrival="117.00" arrivalLane="-E1_1" arrivalPos="498.92" arrivalSpeed="19.61" duration="62.00" routeLength="995.07" waitingTime="0.00" waitingCount="0" stopTime="0.00" timeLoss="14.95" rerouteNo="0" devices="tripinfo_SN.12 routing_SN.12" vType="car" speedFactor="1.07" vaporized=""/>
    <tripinfo id="SN.cv.7" depart="57.00" departLane="-E3_1" departPos="5.10" departSpeed="19.45" departDelay="0.00" arrival="118.00" arrivalLane="-E1_0" arrivalPos="498.92" arrivalSpeed="18.87" duration="61.00" routeLength="995.07" waitingTime="0.00" waitingCount="0" stopTime="0.00" timeLoss="9.67" rerouteNo="0" devices="tripinfo_SN.cv.7 routing_SN.cv.7" vType="cv" speedFactor="0.97" vaporized=""/>
    <tripinfo id="NS.cv.3" depart="58.00" departLane="E1_2" departPos="5.10" departSpeed="16.83" departDelay="0.00" arrival="119.00" arrivalLane="E3_1" arrivalPos="501.31" arrivalSpeed="16.83" duration="61.00" routeLength="994.98" waitingTime="0.00" waitingCount="0" stopTime="0.00" timeLoss="0.99" rerouteNo="0" devices="tripinfo_NS.cv.3 routing_NS.cv.3" vType="cv" speedFactor="0.84" vaporized=""/>
    <tripinfo id="NS.cv.4" depart="59.00" departLane="E1_1" departPos="5.10" departSpeed="17.72" departDelay="0.00" arrival="119.00" arrivalLane="E3_0" arrivalPos="501.31" arrivalSpeed="16.83" duration="60.00" routeLength="994.98" waitingTime="0.00" waitingCount="0" stopTime="0.00" timeLoss="3.57" rerouteNo="0" devices="tripinfo_NS.cv.4 routing_NS.cv.4" vType="cv" speedFactor="0.88" vaporized=""/>
    <tripinfo id="NS.12" depart="63.00" departLane="E1_2" departPos="5.10" departSpeed="24.03" departDelay="0.00" arrival="120.00" arrivalLane="E3_1" arrivalPos="501.31" arrivalSpeed="18.69" duration="57.00" routeLength="994.98" waitingTime="0.00" waitingCount="0" stopTime="0.00" timeLoss="15.31" rerouteNo="0" devices="tripinfo_NS.12 routing_NS.12" vType="car" speedFactor="1.19" vaporized=""/>
    <tripinfo id="WN.1" depart="19.00" departLane="E0_2" departPos="5.10" departSpeed="17.35" departDelay="0.00" arrival="122.00" arrivalLane="-E1_1" arrivalPos="498.92" arrivalSpeed="22.25" duration="103.00" routeLength="993.15" waitingTime="37.00" waitingCount="1" stopTime="0.00" timeLoss="51.29" rerouteNo="0" devices="tripinfo_WN.1 routing_WN.1" vType="car" speedFactor="1.11" vaporized=""/>
    <tripinfo id="ES.cv.1" depart="48.00" departLane="-E2_3" departPos="5.10" departSpeed="16.09" departDelay="0.00" arrival="123.00" arrivalLane="E3_1" arrivalPos="501.31" arrivalSpeed="20.42" duration="75.00" routeLength="1002.88" waitingTime="7.00" waitingCount="1" stopTime="0.00" timeLoss="19.55" rerouteNo="0" devices="tripinfo_ES.cv.1 routing_ES.cv.1" vType="cv" speedFactor="1.03" vaporized=""/>
    <tripinfo id="WS.cv.0" depart="19.00" departLane="E0_0" departPos="5.10" departSpeed="15.45" departDelay="0.00" arrival="124.00" arrivalLane="E3_0" arrivalPos="501.31" arrivalSpeed="19.79" duration="105.00" routeLength="995.54" waitingTime="35.00" waitingCount="1" stopTime="0.00" timeLoss="47.18" rerouteNo="0" devices="tripinfo_WS.cv.0 routing_WS.cv.0" vType="cv" speedFactor="0.99" vaporized=""/>
    <tripinfo id="WN.2" depart="27.00" departLane="E0_3" departPos="5.10" departSpeed="18.18" departDelay="0.00" arrival="124.00" arrivalLane="-E1_1" arrivalPos="498.92" arrivalSpeed="22.70" duration="97.00" routeLength="993.15" waitingTime="33.00" waitingCount="1" stopTime="0.00" timeLoss="47.99" rerouteNo="0" devices="tripinfo_WN.2 routing_WN.2" vType="car" speedFactor="1.16" vaporized=""/>
    <tripinfo id="WN.0" depart="1.00" departLane="E0_2" departPos="5.10" departSpeed="14.80" departDelay="0.00" arrival="125.00" arrivalLane="-E1_0" arrivalPos="498.92" arrivalSpeed="19.02" duration="124.00" routeLength="993.15" waitingTime="52.00" waitingCount="1" stopTime="0.00" timeLoss="63.45" rerouteNo="0" devices="tripinfo_WN.0 routing_WN.0" vType="car" speedFactor="0.95" vaporized=""/>
    <tripinfo id="SE.4" depart="59.00" departLane="-E3_0" departPos="5.10" departSpeed="23.11" departDelay="0.00" arrival="126.00" arrivalLane="E2_0" arrivalPos="508.36" arrivalSpeed="17.98" duration="67.00" routeLength="1004.51" waitingTime="1.00" waitingCount="1" stopTime="0.00" timeLoss="17.00" rerouteNo="0" devices="tripinfo_SE.4 routing_SE.4" vType="car" speedFactor="1.15" vaporized=""/>
    <tripinfo id="ES.0" depart="65.00" departLane="-E2_2" departPos="5.10" departSpeed="17.02" departDelay="0.00" arrival="126.00" arrivalLane="E3_1" arrivalPos="501.31" arrivalSpeed="21.37" duration="61.00" routeLength="1002.88" waitingTime="0.00" waitingCount="0" stopTime="0.00" timeLoss="7.78" rerouteNo="0" devices="tripinfo_ES.0 routing_ES.0" vType="car" speedFactor="1.09" vaporized=""/>
    <tripinfo id="WN.cv.0" depart="16.00" departLane="E0_3" departPos="5.10" departSpeed="15.72" departDelay="0.00" arrival="127.00" arrivalLane="-E1_0" arrivalPos="498.92" arrivalSpeed="19.71" duration="111.00" routeLength="993.15" waitingTime="40.00" waitingCount="1" stopTime="0.00" timeLoss="54.44" rerouteNo="0" devices="tripinfo_WN.cv.0 routing_WN.cv.0" vType="cv" speedFactor="1.00" vaporized=""/>
    <tripinfo id="NW.cv.0" depart="60.00" departLane="E1_0" departPos="5.10" departSpeed="21.57" departDelay="0.00" arrival="127.00" arrivalLane="-E0_0" arrivalPos="500.03" arrivalSpeed="16.78" duration="67.00" routeLength="993.70" waitingTime="0.00" waitingCount="0" stopTime="0.00" timeLoss="13.98" rerouteNo="0" devices="tripinfo_NW.cv.0 routing_NW.cv.0" vType="cv" speedFactor="1.07" vaporized=""/>
    <tripinfo id="WN.cv.1" depart="52.00" departLane="E0_3" departPos="5.10" departSpeed="14.72" departDelay="0.00" arrival="129.00" arrivalLane="-E1_1" arrivalPos="498.92" arrivalSpeed="18.92" duration="77.00" routeLength="993.15" waitingTime="4.00" waitingCount="1" stopTime="0.00" timeLoss="16.68" rerouteNo="0" devices="tripinfo_WN.cv.1 routing_WN.cv.1" vType="cv" speedFactor="0.94" vaporized=""/>
    <tripinfo id="WN.3" depart="28.00" departLane="E0_2" departPos="5.10" departSpeed="14.63" departDelay="0.00" arrival="130.00" arrivalLane="-E1_0" arrivalPos="498.92" arrivalSpeed="18.69" duration="102.00" routeLength="993.15" waitingTime="28.00" waitingCount="1" stopTime="0.00" timeLoss="41.31" rerouteNo="0" devices="tripinfo_WN.3 routing_WN.3" vType="car" speedFactor="0.93" vaporized=""/>
    <tripinfo id="WS.cv.1" depart="44.00" departLane="E0_0" departPos="5.10" departSpeed="17.59" departDelay="0.00" arrival="134.00" arrivalLane="E3_1" arrivalPos="501.31" arrivalSpeed="22.61" duration="90.00" routeLength="995.54" waitingTime="17.00" waitingCount="1" stopTime="0.00" timeLoss="39.56" rerouteNo="0" devices="tripinfo_WS.cv.1 routing_WS.cv.1" vType="cv" speedFactor="1.12" vaporized=""/>
    <tripinfo id="NW.cv.1" depart="68.00" departLane="E1_0" departPos="5.10" departSpeed="17.78" departDelay="0.00" arrival="139.00" arrivalLane="-E0_0" arrivalPos="500.03" arrivalSpeed="13.83" duration="71.00" routeLength="993.70" waitingTime="0.00" waitingCount="0" stopTime="0.00" timeLoss="6.21" rerouteNo="0" devices="tripinfo_NW.cv.1 routing_NW.cv.1" vType="cv" speedFactor="0.88" vaporized=""/>
    <tripinfo id="WE.3" depart="39.00" departLane="E0_0" departPos="5.10" departSpeed="15.01" departDelay="0.00" arrival="142.00" arrivalLane="E2_0" arrivalPos="508.36" arrivalSpeed="15.01" duration="103.00" routeLength="1002.59" waitingTime="18.00" waitingCount="1" stopTime="0.00" timeLoss="35.86" rerouteNo="0" devices="tripinfo_WE.3 routing_WE.3" vType="car" speedFactor="0.96" vaporized=""/>
    <tripinfo id="NW.1" depart="70.00" departLane="E1_0" departPos="5.10" departSpeed="19.36" departDelay="0.00" arrival="142.00" arrivalLane="-E0_0" arrivalPos="500.03" arrivalSpeed="14.98" duration="72.00" routeLength="993.70" waitingTime="0.00" waitingCount="0" stopTime="0.00" timeLoss="12.68" rerouteNo="0" devices="tripinfo_NW.1 routing_NW.1" vType="car" speedFactor="0.96" vaporized=""/>
    <tripinfo id="WE.cv.0" depart="25.00" departLane="E0_1" departPos="5.10" departSpeed="14.65" departDelay="0.00" arrival="143.00" arrivalLane="E2_0" arrivalPos="508.36" arrivalSpeed="14.65" duration="118.00" routeLength="1002.59" waitingTime="39.00" waitingCount="1" stopTime="0.00" timeLoss="48.99" rerouteNo="0" devices="tripinfo_WE.cv.0 routing_WE.cv.0" vType="cv" speedFactor="0.94" vaporized=""/>
    <tripinfo id="EW.2" depart="33.00" departLane="-E2_0" departPos="5.10" departSpeed="15.95" departDelay="0.00" arrival="143.00" arrivalLane="-E0_0" arrivalPos="500.03" arrivalSpeed="15.95" duration="110.00" routeLength="1001.60" waitingTime="35.00" waitingCount="1" stopTime="0.00" timeLoss="46.68" rerouteNo="0" devices="tripinfo_EW.2 routing_EW.2" vType="car" speedFactor="1.02" vaporized=""/>