<?xml version="1.0" encoding="UTF-8"?>

<!-- generated on 2023-01-29 23:57:50 by Eclipse SUMO sumo Version 1.13.0
<configuration xmlns:xsi="http://www.w3.org/2001/XMLSchema-instance" xsi:noNamespaceSchemaLocation="http://sumo.dlr.de/xsd/sumoConfiguration.xsd">

    <input>
        <net-file value="data/Eastway-Central.net.xml"/>
        <route-files value="data/cav20.rou.xml"/>
        <additional-files value="data/Eastway-Central.add.xml"/>
    </input>

    <output>
        <tripinfo-output value="result\2023-01-29-23-57-49\1_tripinfo.xml"/>
    </output>

    <report>
        <no-warnings value="true"/>
        <no-step-log value="true"/>
    </report>

    <traci_server>
        <remote-port value="50812"/>
    </traci_server>

    <random_number>
        <seed value="0"/>
    </random_number>

</configuration>
-->

<tripinfos xmlns:xsi="http://www.w3.org/2001/XMLSchema-instance" xsi:noNamespaceSchemaLocation="http://sumo.dlr.de/xsd/tripinfo_file.xsd">
    <tripinfo id="WE.1" depart="6.00" departLane="E0_1" departPos="5.10" departSpeed="16.50" departDelay="0.00" arrival="41.00" arrivalLane="E2_0" arrivalPos="508.36" arrivalSpeed="4.53" duration="35.00" routeLength="1002.59" waitingTime="0.00" waitingCount="0" stopTime="0.00" timeLoss="4.95" rerouteNo="0" devices="tripinfo_WE.1 routing_WE.1" vType="car" speedFactor="1.05" vaporized="teleport"/>
    <tripinfo id="WE.2" depart="13.00" departLane="E0_0" departPos="5.10" departSpeed="16.24" departDelay="0.00" arrival="45.00" arrivalLane="E2_0" arrivalPos="508.36" arrivalSpeed="13.28" duration="32.00" routeLength="1002.59" waitingTime="0.00" waitingCount="0" stopTime="0.00" timeLoss="1.47" rerouteNo="0" devices="tripinfo_WE.2 routing_WE.2" vType="car" speedFactor="1.04" vaporized="teleport"/>
    <tripinfo id="BNS.0" depart="0.00" departLane="E1_1" departPos="12.10" departSpeed="20.12" departDelay="0.00" arrival="50.00" arrivalLane="E3_0" arrivalPos="501.31" arrivalSpeed="20.12" duration="50.00" routeLength="987.98" waitingTime="0.00" waitingCount="0" stopTime="0.00" timeLoss="0.19" rerouteNo="0" devices="tripinfo_BNS.0 routing_BNS.0" vType="bus" speedFactor="1.00" vaporized=""/>
    <tripinfo id="SN.0" depart="3.00" departLane="-E3_1" departPos="5.10" departSpeed="20.72" departDelay="0.00" arrival="52.00" arrivalLane="-E1_0" arrivalPos="498.92" arrivalSpeed="20.72" duration="49.00" routeLength="995.07" waitingTime="0.00" waitingCount="0" stopTime="0.00" timeLoss="0.06" rerouteNo="0" devices="tripinfo_SN.0 routing_SN.0" vType="car" speedFactor="1.03" vaporized=""/>
    <tripinfo id="SN.1" depart="4.00" departLane="-E3_2" departPos="5.10" departSpeed="20.43" departDelay="0.00" arrival="53.00" arrivalLane="-E1_1" arrivalPos="498.92" arrivalSpeed="20.43" duration="49.00" routeLength="995.07" waitingTime="0.00" waitingCount="0" stopTime="0.00" timeLoss="0.04" rerouteNo="0" devices="tripinfo_SN.1 routing_SN.1" vType="car" speedFactor="1.02" vaporized=""/>
    <tripinfo id="NS.1" depart="8.00" departLane="E1_1" departPos="5.10" departSpeed="22.65" departDelay="0.00" arrival="54.00" arrivalLane="E3_1" arrivalPos="501.31" arrivalSpeed="22.65" duration="46.00" routeLength="994.98" waitingTime="0.00" waitingCount="0" stopTime="0.00" timeLoss="1.32" rerouteNo="0" devices="tripinfo_NS.1 routing_NS.1" vType="car" speedFactor="1.13" vaporized=""/>
    <tripinfo id="SN.2" depart="5.00" departLane="-E3_1" departPos="5.10" departSpeed="19.02" departDelay="0.00" arrival="58.00" arrivalLane="-E1_0" arrivalPos="498.92" arrivalSpeed="19.02" duration="53.00" routeLength="995.07" waitingTime="0.00" waitingCount="0" stopTime="0.00" timeLoss="0.64" rerouteNo="0" devices="tripinfo_SN.2 routing_SN.2" vType="car" speedFactor="0.95" vaporized=""/>
    <tripinfo id="NS.0" depart="5.00" departLane="E1_2" departPos="5.10" departSpeed="17.77" departDelay="0.00" arrival="62.00" arrivalLane="E3_0" arrivalPos="501.31" arrivalSpeed="17.77" duration="57.00" routeLength="994.98" waitingTime="0.00" waitingCount="0" stopTime="0.00" timeLoss="0.09" rerouteNo="0" devices="tripinfo_NS.0 routing_NS.0" vType="car" speedFactor="0.88" vaporized=""/>
    <tripinfo id="SE.cv.0" depart="5.00" departLane="-E3_0" departPos="5.10" departSpeed="23.25" departDelay="0.00" arrival="63.00" arrivalLane="E2_0" arrivalPos="508.36" arrivalSpeed="18.09" duration="58.00" routeLength="1004.51" waitingTime="0.00" waitingCount="0" stopTime="0.00" timeLoss="8.12" rerouteNo="0" devices="tripinfo_SE.cv.0 routing_SE.cv.0" vType="cv" speedFactor="1.16" vaporized=""/>
    <tripinfo id="SE.cv.1" depart="7.00" departLane="-E3_0" departPos="5.10" departSpeed="23.27" departDelay="0.00" arrival="70.00" arrivalLane="E2_0" arrivalPos="508.36" arrivalSpeed="19.84" duration="63.00" routeLength="1004.51" waitingTime="0.00" waitingCount="0" stopTime="0.00" timeLoss="17.44" rerouteNo="0" devices="tripinfo_SE.cv.1 routing_SE.cv.1" vType="cv" speedFactor="1.27" vaporized=""/>
    <tripinfo id="EW.0" depart="1.00" departLane="-E2_0" departPos="5.10" departSpeed="17.47" departDelay="0.00" arrival="72.00" arrivalLane="-E0_0" arrivalPos="500.03" arrivalSpeed="17.47" duration="71.00" routeLength="1001.60" waitingTime="2.00" waitingCount="1" stopTime="0.00" timeLoss="13.61" rerouteNo="0" devices="tripinfo_EW.0 routing_EW.0" vType="car" speedFactor="1.12" vaporized=""/>
    <tripinfo id="WE.0" depart="2.00" departLane="E0_0" departPos="5.10" departSpeed="16.41" departDelay="0.00" arrival="75.00" arrivalLane="E2_0" arrivalPos="508.36" arrivalSpeed="16.40" duration="73.00" routeLength="1002.59" waitingTime="0.00" waitingCount="0" stopTime="0.00" timeLoss="11.21" rerouteNo="0" devices="tripinfo_WE.0 routing_WE.0" vType="car" speedFactor="1.05" vaporized=""/>
    <tripinfo id="EN.0" depart="8.00" departLane="-E2_0" departPos="5.10" departSpeed="14.79" departDelay="0.00" arrival="75.00" arrivalLane="-E1_0" arrivalPos="498.92" arrivalSpeed="19.02" duration="67.00" routeLength="1000.49" waitingTime="0.00" waitingCount="0" stopTime="0.00" timeLoss="5.92" rerouteNo="0" devices="tripinfo_EN.0 routing_EN.0" vType="car" speedFactor="0.95" vaporized=""/>
    <tripinfo id="SE.1" depart="16.00" departLane="-E3_0" departPos="5.10" departSpeed="22.28" departDelay="0.00" arrival="79.00" arrivalLane="E2_1" arrivalPos="508.36" arrivalSpeed="17.33" duration="63.00" routeLength="1004.51" waitingTime="0.00" waitingCount="0" stopTime="0.00" timeLoss="11.22" rerouteNo="0" devices="tripinfo_SE.1 routing_SE.1" vType="car" speedFactor="1.11" vaporized=""/>
    <tripinfo id="SE.0" depart="10.00" departLane="-E3_0" departPos="5.10" departSpeed="18.75" departDelay="0.00" arrival="82.00" arrivalLane="E2_0" arrivalPos="508.36" arrivalSpeed="14.58" duration="72.00" routeLength="1004.51" waitingTime="0.00" waitingCount="0" stopTime="0.00" timeLoss="9.81" rerouteNo="0" devices="tripinfo_SE.0 routing_SE.0" vType="car" speedFactor="0.93" vaporized=""/>
    <tripinfo id="EW.cv.0" depart="18.00" departLane="-E2_1" departPos="5.10" departSpeed="15.73" departDelay="0.00" arrival="83.00" arrivalLane="-E0_1" arrivalPos="500.03" arrivalSpeed="15.73" duration="65.00" routeLength="1001.60" waitingTime="0.00" waitingCount="0" stopTime="0.00" timeLoss="1.19" rerouteNo="0" devices="tripinfo_EW.cv.0 routing_EW.cv.0" vType="cv" speedFactor="1.01" vaporized=""/>
    <tripinfo id="NW.0" depart="17.00" departLane="E1_0" departPos="5.10" departSpeed="18.88" departDelay="0.00" arrival="84.00" arrivalLane="-E0_0" arrivalPos="500.03" arrivalSpeed="14.69" duration="67.00" routeLength="993.70" waitingTime="0.00" waitingCount="0" stopTime="0.00" timeLoss="5.87" rerouteNo="0" devices="tripinfo_NW.0 routing_NW.0" vType="car" speedFactor="0.94" vaporized=""/>
    <tripinfo id="NW.cv.0" depart="24.00" departLane="E1_0" departPos="5.10" departSpeed="23.18" departDelay="0.00" arrival="85.00" arrivalLane="-E0_0" arrivalPos="500.03" arrivalSpeed="16.06" duration="61.00" routeLength="993.70" waitingTime="0.00" waitingCount="0" stopTime="0.00" timeLoss="11.88" rerouteNo="0" devices="tripinfo_NW.cv.0 routing_NW.cv.0" vType="cv" speedFactor="1.15" vaporized=""/>
    <tripinfo id="EW.1" depart="22.00" departLane="-E2_0" departPos="5.10" departSpeed="16.20" departDelay="0.00" arrival="87.00" arrivalLane="-E0_1" arrivalPos="500.03" arrivalSpeed="16.16" duration="65.00" routeLength="1001.60" waitingTime="0.00" waitingCount="0" stopTime="0.00" timeLoss="2.27" rerouteNo="0" devices="tripinfo_EW.1 routing_EW.1" vType="car" speedFactor="1.03" vaporized=""/>
    <tripinfo id="WE.4" depart="21.00" departLane="E0_0" departPos="5.10" departSpeed="15.29" departDelay="0.00" arrival="89.00" arrivalLane="E2_1" arrivalPos="508.36" arrivalSpeed="15.29" duration="68.00" routeLength="1002.59" waitingTime="0.00" waitingCount="0" stopTime="0.00" timeLoss="1.97" rerouteNo="0" devices="tripinfo_WE.4 routing_WE.4" vType="car" speedFactor="0.98" vaporized=""/>
    <tripinfo id="NS.3" depart="17.00" departLane="E1_2" departPos="5.10" departSpeed="23.80" departDelay="0.00" arrival="90.00" arrivalLane="E3_1" arrivalPos="501.31" arrivalSpeed="23.80" duration="73.00" routeLength="994.98" waitingTime="18.00" waitingCount="1" stopTime="0.00" timeLoss="30.95" rerouteNo="0" devices="tripinfo_NS.3 routing_NS.3" vType="car" speedFactor="1.18" vaporized=""/>
    <tripinfo id="WE.3" depart="17.00" departLane="E0_1" departPos="5.10" departSpeed="13.85" departDelay="0.00" arrival="90.00" arrivalLane="E2_0" arrivalPos="508.36" arrivalSpeed="13.85" duration="73.00" routeLength="1002.59" waitingTime="0.00" waitingCount="0" stopTime="0.00" timeLoss="0.44" rerouteNo="0" devices="tripinfo_WE.3 routing_WE.3" vType="car" speedFactor="0.89" vaporized=""/>
    <tripinfo id="WE.5" depart="26.00" departLane="E0_1" departPos="5.10" departSpeed="16.11" departDelay="0.00" arrival="92.00" arrivalLane="E2_1" arrivalPos="508.36" arrivalSpeed="16.01" duration="66.00" routeLength="1002.59" waitingTime="0.00" waitingCount="0" stopTime="0.00" timeLoss="3.26" rerouteNo="0" devices="tripinfo_WE.5 routing_WE.5" vType="car" speedFactor="1.03" vaporized=""/>
    <tripinfo id="NS.2" depart="14.00" departLane="E1_1" departPos="5.10" departSpeed="20.94" departDelay="0.00" arrival="93.00" arrivalLane="E3_0" arrivalPos="501.31" arrivalSpeed="20.94" duration="79.00" routeLength="994.98" waitingTime="18.00" waitingCount="1" stopTime="0.00" timeLoss="30.50" rerouteNo="0" devices="tripinfo_NS.2 routing_NS.2" vType="car" speedFactor="1.04" vaporized=""/>
    <tripinfo id="NS.5" depart="26.00" departLane="E1_2" departPos="5.10" departSpeed="19.84" departDelay="0.00" arrival="96.00" arrivalLane="E3_0" arrivalPos="501.31" arrivalSpeed="19.77" duration="70.00" routeLength="994.98" waitingTime="3.00" waitingCount="1" stopTime="0.00" timeLoss="19.73" rerouteNo="0" devices="tripinfo_NS.5 routing_NS.5" vType="car" speedFactor="0.99" vaporized=""/>
    <tripinfo id="NS.4" depart="20.00" departLane="E1_1" departPos="5.10" departSpeed="18.93" departDelay="0.00" arrival="97.00" arrivalLane="E3_1" arrivalPos="501.31" arrivalSpeed="18.93" duration="77.00" routeLength="994.98" waitingTime="11.00" waitingCount="1" stopTime="0.00" timeLoss="23.89" rerouteNo="0" devices="tripinfo_NS.4 routing_NS.4" vType="car" speedFactor="0.94" vaporized=""/>
    <tripinfo id="SE.2" depart="32.00" departLane="-E3_0" departPos="5.10" departSpeed="21.13" departDelay="0.00" arrival="99.00" arrivalLane="E2_0" arrivalPos="508.36" arrivalSpeed="16.44" duration="67.00" routeLength="1004.51" waitingTime="0.00" waitingCount="0" stopTime="0.00" timeLoss="11.74" rerouteNo="0" devices="tripinfo_SE.2 routing_SE.2" vType="car" speedFactor="1.05" vaporized=""/>
    <tripinfo id="NE.0" depart="33.00" departLane="E1_3" departPos="5.10" departSpeed="19.01" departDelay="0.00" arrival="102.00" arrivalLane="E2_1" arrivalPos="508.36" arrivalSpeed="14.77" duration="69.00" routeLength="1002.03" waitingTime="0.00" waitingCount="0" stopTime="0.00" timeLoss="7.98" rerouteNo="0" devices="tripinfo_NE.0 routing_NE.0" vType="car" speedFactor="0.94" vaporized=""/>
    <tripinfo id="NS.6" depart="34.00" departLane="E1_1" departPos="5.10" departSpeed="16.92" departDelay="0.00" arrival="102.00" arrivalLane="E3_0" arrivalPos="501.31" arrivalSpeed="16.92" duration="68.00" routeLength="994.98" waitingTime="0.00" waitingCount="0" stopTime="0.00" timeLoss="8.67" rerouteNo="0" devices="tripinfo_NS.6 routing_NS.6" vType="car" speedFactor="0.84" vaporized=""/>
    <tripinfo id="NS.7" depart="38.00" departLane="E1_2" departPos="5.10" departSpeed="17.06" departDelay="0.00" arrival="102.00" arrivalLane="E3_1" arrivalPos="501.31" arrivalSpeed="17.05" duration="64.00" routeLength="994.98" waitingTime="0.00" waitingCount="0" stopTime="0.00" timeLoss="4.97" rerouteNo="0" devices="tripinfo_NS.7 routing_NS.7" vType="car" speedFactor="0.85" vaporized=""/>
    <tripinfo id="SN.cv.0" depart="12.00" departLane="-E3_1" departPos="5.10" departSpeed="19.85" departDelay="0.00" arrival="103.00" arrivalLane="-E1_0" arrivalPos="498.92" arrivalSpeed="19.85" duration="91.00" routeLength="995.07" waitingTime="30.00" waitingCount="1" stopTime="0.00" timeLoss="40.84" rerouteNo="0" devices="tripinfo_SN.cv.0 routing_SN.cv.0" vType="cv" speedFactor="0.99" vaporized=""/>
    <tripinfo id="SN.4" depart="20.00" departLane="-E3_1" departPos="5.10" departSpeed="21.85" departDelay="0.00" arrival="104.00" arrivalLane="-E1_1" arrivalPos="498.92" arrivalSpeed="21.85" duration="84.00" routeLength="995.07" waitingTime="24.00" waitingCount="1" stopTime="0.00" timeLoss="38.01" rerouteNo="0" devices="tripinfo_SN.4 routing_SN.4" vType="car" speedFactor="1.09" vaporized=""/>
    <tripinfo id="NS.10" depart="54.00" departLane="E1_1" departPos="5.10" departSpeed="21.05" departDelay="0.00" arrival="105.00" arrivalLane="E3_1" arrivalPos="501.31" arrivalSpeed="23.11" duration="51.00" routeLength="994.98" waitingTime="0.00" waitingCount="0" stopTime="0.00" timeLoss="8.42" rerouteNo="0" devices="tripinfo_NS.10 routing_NS.10" vType="car" speedFactor="1.18" vaporized=""/>
    <tripinfo id="SN.6" depart="25.00" departLane="-E3_2" departPos="5.10" departSpeed="23.95" departDelay="0.00" arrival="106.00" arrivalLane="-E1_1" arrivalPos="498.92" arrivalSpeed="22.97" duration="81.00" routeLength="995.07" waitingTime="22.00" waitingCount="1" stopTime="0.00" timeLoss="39.11" rerouteNo="0" devices="tripinfo_SN.6 routing_SN.6" vType="car" speedFactor="1.19" vaporized=""/>
    <tripinfo id="NE.1" depart="34.00" departLane="E1_3" departPos="5.10" departSpeed="15.79" departDelay="0.00" arrival="106.00" arrivalLane="E2_0" arrivalPos="508.36" arrivalSpeed="13.92" duration="72.00" routeLength="1002.03" waitingTime="0.00" waitingCount="0" stopTime="0.00" timeLoss="7.44" rerouteNo="0" devices="tripinfo_NE.1 routing_NE.1" vType="car" speedFactor="0.89" vaporized=""/>
    <tripinfo id="NS.9" depart="53.00" departLane="E1_2" departPos="5.10" departSpeed="19.40" departDelay="0.00" arrival="106.00" arrivalLane="E3_0" arrivalPos="501.31" arrivalSpeed="19.33" duration="53.00" routeLength="994.98" waitingTime="0.00" waitingCount="0" stopTime="0.00" timeLoss="0.99" rerouteNo="0" devices="tripinfo_NS.9 routing_NS.9" vType="car" speedFactor="0.96" vaporized=""/>
    <tripinfo id="SN.7" depart="28.00" departLane="-E3_1" departPos="5.10" departSpeed="22.76" departDelay="0.00" arrival="108.00" arrivalLane="-E1_1" arrivalPos="498.92" arrivalSpeed="22.09" duration="80.00" routeLength="995.07" waitingTime="16.00" waitingCount="1" stopTime="0.00" timeLoss="36.16" rerouteNo="0" devices="tripinfo_SN.7 routing_SN.7" vType="car" speedFactor="1.13" vaporized=""/>
    <tripinfo id="SN.3" depart="6.00" departLane="-E3_2" departPos="5.10" departSpeed="15.38" departDelay="0.00" arrival="110.00" arrivalLane="-E1_0" arrivalPos="498.92" arrivalSpeed="15.38" duration="104.00" routeLength="995.07" waitingTime="29.00" waitingCount="1" stopTime="0.00" timeLoss="38.86" rerouteNo="0" devices="tripinfo_SN.3 routing_SN.3" vType="car" speedFactor="0.76" vaporized=""/>
    <tripinfo id="SN.5" depart="23.00" departLane="-E3_1" departPos="5.10" departSpeed="21.20" departDelay="0.00" arrival="110.00" arrivalLane="-E1_1" arrivalPos="498.92" arrivalSpeed="20.42" duration="87.00" routeLength="995.07" waitingTime="20.00" waitingCount="1" stopTime="0.00" timeLoss="39.87" rerouteNo="0" devices="tripinfo_SN.5 routing_SN.5" vType="car" speedFactor="1.05" vaporized=""/>
    <tripinfo id="NS.11" depart="56.00" departLane="E1_1" departPos="5.10" departSpeed="20.41" departDelay="0.00" arrival="111.00" arrivalLane="E3_1" arrivalPos="501.31" arrivalSpeed="20.41" duration="55.00" routeLength="994.98" waitingTime="0.00" waitingCount="0" stopTime="0.00" timeLoss="5.82" rerouteNo="0" devices="tripinfo_NS.11 routing_NS.11" vType="car" speedFactor="1.01" vaporized=""/>
    <tripinfo id="ES.0" depart="14.00" departLane="-E2_2" departPos="5.10" departSpeed="16.54" departDelay="0.00" arrival="111.00" arrivalLane="E3_0" arrivalPos="501.31" arrivalSpeed="2.60" duration="97.00" routeLength="1002.88" waitingTime="58.00" waitingCount="1" stopTime="0.00" timeLoss="66.62" rerouteNo="0" devices="tripinfo_ES.0 routing_ES.0" vType="car" speedFactor="1.06" vaporized="teleport"/>
    <tripinfo id="SN.8" depart="35.00" departLane="-E3_2" departPos="5.10" departSpeed="17.69" departDelay="0.00" arrival="113.00" arrivalLane="-E1_1" arrivalPos="498.92" arrivalSpeed="17.61" duration="78.00" routeLength="995.07" waitingTime="7.00" waitingCount="1" stopTime="0.00" timeLoss="21.63" rerouteNo="0" devices="tripinfo_SN.8 routing_SN.8" vType="car" speedFactor="0.88" vaporized=""/>
    <tripinfo id="NS.8" depart="51.00" departLane="E1_1" departPos="5.10" departSpeed="16.33" departDelay="0.00" arrival="113.00" arrivalLane="E3_0" arrivalPos="501.31" arrivalSpeed="16.33" duration="62.00" routeLength="994.98" waitingTime="0.00" waitingCount="0" stopTime="0.00" timeLoss="0.35" rerouteNo="0" devices="tripinfo_NS.8 routing_NS.8" vType="car" speedFactor="0.81" vaporized=""/>
    <tripinfo id="SE.3" depart="43.00" departLane="-E3_0" departPos="5.10" departSpeed="18.19" departDelay="0.00" arrival="114.00" arrivalLane="E2_0" arrivalPos="508.36" arrivalSpeed="14.15" duration="71.00" routeLength="1004.51" waitingTime="0.00" waitingCount="0" stopTime="0.00" timeLoss="7.69" rerouteNo="0" devices="tripinfo_SE.3 routing_SE.3" vType="car" speedFactor="0.90" vaporized=""/>
    <tripinfo id="NW.1" depart="45.00" departLane="E1_0" departPos="5.10" departSpeed="17.76" departDelay="0.00" arrival="114.00" arrivalLane="-E0_0" arrivalPos="500.03" arrivalSpeed="13.81" duration="69.00" routeLength="993.70" waitingTime="0.00" waitingCount="0" stopTime="0.00" timeLoss="4.84" rerouteNo="0" devices="tripinfo_NW.1 routing_NW.1" vType="car" speedFactor="0.88" vaporized=""/>
    <tripinfo id="NS.12" depart="58.00" departLane="E1_2" departPos="5.10" departSpeed="21.11" departDelay="0.00" arrival="114.00" arrivalLane="E3_1" arrivalPos="501.31" arrivalSpeed="20.90" duration="56.00" routeLength="994.98" waitingTime="0.00" waitingCount="0" stopTime="0.00" timeLoss="8.27" rerouteNo="0" devices="tripinfo_NS.12 routing_NS.12" vType="car" speedFactor="1.05" vaporized=""/>
    <tripinfo id="SN.9" depart="44.00" departLane="-E3_2" departPos="5.10" departSpeed="19.16" departDelay="0.00" arrival="115.00" arrivalLane="-E1_1" arrivalPos="498.92" arrivalSpeed="18.45" duration="71.00" routeLength="995.07" waitingTime="0.00" waitingCount="0" stopTime="0.00" timeLoss="19.01" rerouteNo="0" devices="tripinfo_SN.9 routing_SN.9" vType="car" speedFactor="0.95" vaporized=""/>
    <tripinfo id="NS.14" depart="63.00" departLane="E1_2" departPos="5.10" departSpeed="22.14" departDelay="0.00" arrival="116.00" arrivalLane="E3_1" arrivalPos="501.31" arrivalSpeed="21.31" duration="53.00" routeLength="994.98" waitingTime="0.00" waitingCount="0" stopTime="0.00" timeLoss="7.57" rerouteNo="0" devices="tripinfo_NS.14 routing_NS.14" vType="car" speedFactor="1.10" vaporized=""/>
    <tripinfo id="SN.cv.1" depart="39.00" departLane="-E3_1" departPos="5.10" departSpeed="15.06" departDelay="0.00" arrival="117.00" arrivalLane="-E1_0" arrivalPos="498.92" arrivalSpeed="15.06" duration="78.00" routeLength="995.07" waitingTime="0.00" waitingCount="0" stopTime="0.00" timeLoss="11.68" rerouteNo="0" devices="tripinfo_SN.cv.1 routing_SN.cv.1" vType="cv" speedFactor="0.75" vaporized=""/>
    <tripinfo id="SN.10" depart="47.00" departLane="-E3_1" departPos="5.10" departSpeed="22.00" departDelay="0.00" arrival="117.00" arrivalLane="-E1_1" arrivalPos="498.92" arrivalSpeed="19.90" duration="70.00" routeLength="995.07" waitingTime="0.00" waitingCount="0" stopTime="0.00" timeLoss="24.38" rerouteNo="0" devices="tripinfo_SN.10 routing_SN.10" vType="car" speedFactor="1.09" vaporized=""/>
    <tripinfo id="NS.cv.0" depart="55.00" departLane="E1_2" departPos="5.10" departSpeed="16.62" departDelay="0.00" arrival="117.00" arrivalLane="E3_0" arrivalPos="501.31" arrivalSpeed="16.59" duration="62.00" routeLength="994.98" waitingTime="0.00" waitingCount="0" stopTime="0.00" timeLoss="1.24" rerouteNo="0" devices="tripinfo_NS.cv.0 routing_NS.cv.0" vType="cv" speedFactor="0.83" vaporized=""/>
    <tripinfo id="NS.15" depart="66.00" departLane="E1_1" departPos="5.10" departSpeed="22.89" departDelay="0.00" arrival="118.00" arrivalLane="E3_1" arrivalPos="501.31" arrivalSpeed="21.66" duration="52.00" routeLength="994.98" waitingTime="0.00" waitingCount="0" stopTime="0.00" timeLoss="7.95" rerouteNo="0" devices="tripinfo_NS.15 routing_NS.15" vType="car" speedFactor="1.14" vaporized=""/>
    <tripinfo id="SN.cv.2" depart="49.00" departLane="-E3_1" departPos="5.10" departSpeed="19.04" departDelay="0.00" arrival="119.00" arrivalLane="-E1_1" arrivalPos="498.92" arrivalSpeed="18.45" duration="70.00" routeLength="995.07" waitingTime="0.00" waitingCount="0" stopTime="0.00" timeLoss="17.53" rerouteNo="0" devices="tripinfo_SN.cv.2 routing_SN.cv.2" vType="cv" speedFactor="0.95" vaporized=""/>
    <tripinfo id="NW.cv.1" depart="54.00" departLane="E1_0" departPos="5.10" departSpeed="19.80" departDelay="0.00" arrival="120.00" arrivalLane="-E0_0" arrivalPos="500.03" arrivalSpeed="15.40" duration="66.00" routeLength="993.70" waitingTime="0.00" waitingCount="0" stopTime="0.00" timeLoss="8.08" rerouteNo="0" devices="tripinfo_NW.cv.1 routing_NW.cv.1" vType="cv" speedFactor="0.98" vaporized=""/>
    <tripinfo id="NS.13" depart="62.00" departLane="E1_1" departPos="5.10" departSpeed="18.02" departDelay="0.00" arrival="120.00" arrivalLane="E3_0" arrivalPos="501.31" arrivalSpeed="17.87" duration="58.00" routeLength="994.98" waitingTime="0.00" waitingCount="0" stopTime="0.00" timeLoss="2.01" rerouteNo="0" devices="tripinfo_NS.13 routing_NS.13" vType="car" speedFactor="0.90" vaporized=""/>
    <tripinfo id="NS.16" depart="69.00" departLane="E1_1" departPos="5.10" departSpeed="22.65" departDelay="0.00" arrival="120.00" arrivalLane="E3_1" arrivalPos="501.31" arrivalSpeed="21.51" duration="51.00" routeLength="994.98" waitingTime="0.00" waitingCount="0" stopTime="0.00" timeLoss="6.43" rerouteNo="0" devices="tripinfo_NS.16 routing_NS.16" vType="car" speedFactor="1.13" vaporized=""/>
    <tripinfo id="SN.12" depart="54.00" departLane="-E3_2" departPos="5.10" departSpeed="20.51" departDelay="0.00" arrival="121.00" arrivalLane="-E1_1" arrivalPos="498.92" arrivalSpeed="19.23" duration="67.00" routeLength="995.07" waitingTime="0.00" waitingCount="0" stopTime="0.00" timeLoss="18.13" rerouteNo="0" devices="tripinfo_SN.12 routing_SN.12" vType="car" speedFactor="1.02" vaporized=""/>
    <tripinfo id="SE.4" depart="52.00" departLane="-E3_0" departPos="5.10" departSpeed="18.67" departDelay="0.00" arrival="122.00" arrivalLane="E2_0" arrivalPos="508.36" arrivalSpeed="14.52" duration="70.00" routeLength="1004.51" waitingTime="0.00" waitingCount="0" stopTime="0.00" timeLoss="8.29" rerouteNo="0" devices="tripinfo_SE.4 routing_SE.4" vType="car" speedFactor="0.93" vaporized=""/>
    <tripinfo id="NS.18" depart="76.00" departLane="E1_1" departPos="5.10" departSpeed="23.51" departDelay="0.00" arrival="122.00" arrivalLane="E3_1" arrivalPos="501.31" arrivalSpeed="22.22" duration="46.00" routeLength="994.98" waitingTime="0.00" waitingCount="0" stopTime="0.00" timeLoss="3.04" rerouteNo="0" devices="tripinfo_NS.18 routing_NS.18" vType="car" speedFactor="1.17" vaporized=""/>
    <tripinfo id="EW.2" depart="34.00" departLane="-E2_0" departPos="5.10" departSpeed="15.77" departDelay="0.00" arrival="122.00" arrivalLane="-E0_0" arrivalPos="500.03" arrivalSpeed="2.60" duration="88.00" routeLength="1001.60" waitingTime="48.00" waitingCount="1" stopTime="0.00" timeLoss="56.10" rerouteNo="0" devices="tripinfo_EW.2 routing_EW.2" vType="car" speedFactor="1.01" vaporized="teleport"/>
    <tripinfo id="SN.11" depart="48.00" departLane="-E3_2" departPos="5.10" departSpeed="13.77" departDelay="0.00" arrival="123.00" arrivalLane="-E1_0" arrivalPos="498.92" arrivalSpeed="13.77" duration="75.00" routeLength="995.07" waitingTime="0.00" waitingCount="0" stopTime="0.00" timeLoss="2.14" rerouteNo="0" devices="tripinfo_SN.11 routing_SN.11" vType="car" speedFactor="0.68" vaporized=""/>
    <tripinfo id="SE.cv.2" depart="87.00" departLane="-E3_0" departPos="5.10" departSpeed="21.97" departDelay="0.00" arrival="122.00" arrivalLane="E2_0" arrivalPos="508.36" arrivalSpeed="3.53" duration="35.00" routeLength="1004.51" waitingTime="0.00" waitingCount="0" stopTime="0.00" timeLoss="12.30" rerouteNo="0" devices="tripinfo_SE.cv.2 routing_SE.cv.2" vType="cv" speedFactor="1.09" vaporized="teleport"/>
    <tripinfo id="SN.13" depart="57.00" departLane="-E3_1" departPos="5.10" departSpeed="21.04" departDelay="0.00" arrival="124.00" arrivalLane="-E1_0" arrivalPos="498.92" arrivalSpeed="15.77" duration="67.00" routeLength="995.07" waitingTime="0.00" waitingCount="0" stopTime="0.00" timeLoss="19.67" rerouteNo="0" devices="tripinfo_SN.13 routing_SN.13" vType="car" speedFactor="1.05" vaporized=""/>
    <tripinfo id="SN.cv.3" depart="57.00" departLane="-E3_2" departPos="5.10" departSpeed="18.32" departDelay="0.00" arrival="124.00" arrivalLane="-E1_1" arrivalPos="498.92" arrivalSpeed="18.10" duration="67.00" routeLength="995.07" waitingTime="0.00" waitingCount="0" stopTime="0.00" timeLoss="11.72" rerouteNo="0" devices="tripinfo_SN.cv.3 routing_SN.cv.3" vType="cv" speedFactor="0.91" vaporized=""/>
    <tripinfo id="SN.15" depart="59.00" departLane="-E3_2" departPos="5.10" departSpeed="20.34" departDelay="0.00" arrival="125.00" arrivalLane="-E1_1" arrivalPos="498.92" arrivalSpeed="19.34" duration="66.00" routeLength="995.07" waitingTime="0.00" waitingCount="0" stopTime="0.00" timeLoss="24.99" rerouteNo="0" devices="tripinfo_SN.15 routing_SN.15" vType="car" speedFactor="1.22" vaporized=""/>
    <tripinfo id="SN.14" depart="58.00" departLane="-E3_1" departPos="5.10" departSpeed="18.30" departDelay="0.00" arrival="126.00" arrivalLane="-E1_0" arrivalPos="498.92" arrivalSpeed="16.49" duration="68.00" routeLength="995.07" waitingTime="0.00" waitingCount="0" stopTime="0.00" timeLoss="13.30" rerouteNo="0" devices="tripinfo_SN.14 routing_SN.14" vType="car" speedFactor="0.91" vaporized=""/>
    <tripinfo id="NS.17" depart="70.00" departLane="E1_2" departPos="5.10" departSpeed="18.18" departDelay="0.00" arrival="126.00" arrivalLane="E3_0" arrivalPos="501.31" arrivalSpeed="18.18" duration="56.00" routeLength="994.98" waitingTime="0.00" waitingCount="0" stopTime="0.00" timeLoss="0.50" rerouteNo="0" devices="tripinfo_NS.17 routing_NS.17" vType="car" speedFactor="0.90" vaporized=""/>
    <tripinfo id="SN.16" depart="61.00" departLane="-E3_1" departPos="5.10" departSpeed="22.32" departDelay="0.00" arrival="127.00" arrivalLane="-E1_1" arrivalPos="498.92" arrivalSpeed="19.92" duration="66.00" routeLength="995.07" waitingTime="0.00" waitingCount="0" stopTime="0.00" timeLoss="20.74" rerouteNo="0" devices="tripinfo_SN.16 routing_SN.16" vType="car" speedFactor="1.11" vaporized=""/>
    <tripinfo id="SN.cv.4" depart="65.00" departLane="-E3_1" departPos="5.10" departSpeed="18.50" departDelay="0.00" arrival="128.00" arrivalLane="-E1_0" arrivalPos="498.92" arrivalSpeed="16.90" duration="63.00" routeLength="995.07" waitingTime="0.00" waitingCount="0" stopTime="0.00" timeLoss="8.63" rerouteNo="0" devices="tripinfo_SN.cv.4 routing_SN.cv.4" vType="cv" speedFactor="0.92" vaporized=""/>
    <tripinfo id="SN.17" depart="65.00" departLane="-E3_2" departPos="5.10" departSpeed="21.16" departDelay="0.00" arrival="129.00" arrivalLane="-E1_1" arrivalPos="498.92" arrivalSpeed="19.62" duration="64.00" routeLength="995.07" waitingTime="0.00" waitingCount="0" stopTime="0.00" timeLoss="16.07" rerouteNo="0" devices="tripinfo_SN.17 routing_SN.17" vType="car" speedFactor="1.05" vaporized=""/>
    <tripinfo id="NS.19" depart="78.00" departLane="E1_1" departPos="5.10" departSpeed="20.38" departDelay="0.00" arrival="129.00" arrivalLane="E3_0" arrivalPos="501.31" arrivalSpeed="20.14" duration="51.00" routeLength="994.98" waitingTime="0.00" waitingCount="0" stopTime="0.00" timeLoss="1.36" rerouteNo="0" devices="tripinfo_NS.19 routing_NS.19" vType="car" speedFactor="1.01" vaporized=""/>
    <tripinfo id="SE.9" depart="90.00" departLane="-E3_0" departPos="5.10" departSpeed="18.41" departDelay="0.00" arrival="128.00" arrivalLane="E2_0" arrivalPos="508.36" arrivalSpeed="5.92" duration="38.00" routeLength="1004.51" waitingTime="0.00" waitingCount="0" stopTime="0.00" timeLoss="16.17" rerouteNo="0" devices="tripinfo_SE.9 routing_SE.9" vType="car" speedFactor="1.14" vaporized="teleport"/>
    <tripinfo id="SN.cv.5" depart="66.00" departLane="-E3_2" departPos="5.10" departSpeed="18.37" departDelay="0.00" arrival="130.00" arrivalLane="-E1_1" arrivalPos="498.92" arrivalSpeed="19.08" duration="64.00" routeLength="995.07" waitingTime="0.00" waitingCount="0" stopTime="0.00" timeLoss="18.77" rerouteNo="0" devices="tripinfo_SN.cv.5 routing_SN.cv.5" vType="cv" speedFactor="1.10" vaporized=""/>