<?xml version="1.0" encoding="UTF-8"?>

<!-- generated on 2023-01-30 12:54:49 by Eclipse SUMO sumo Version 1.13.0
<configuration xmlns:xsi="http://www.w3.org/2001/XMLSchema-instance" xsi:noNamespaceSchemaLocation="http://sumo.dlr.de/xsd/sumoConfiguration.xsd">

    <input>
        <net-file value="data/Eastway-Central.net.xml"/>
        <route-files value="data/Eastway-Central-offpeak.rou.xml"/>
        <additional-files value="data/Eastway-Central.add.xml"/>
    </input>

    <output>
        <tripinfo-output value="result\2023-01-30-12-54-17\4_tripinfo.xml"/>
    </output>

    <report>
        <no-warnings value="true"/>
        <no-step-log value="true"/>
    </report>

    <traci_server>
        <remote-port value="55545"/>
    </traci_server>

    <random_number>
        <seed value="3"/>
    </random_number>

</configuration>
-->

<tripinfos xmlns:xsi="http://www.w3.org/2001/XMLSchema-instance" xsi:noNamespaceSchemaLocation="http://sumo.dlr.de/xsd/tripinfo_file.xsd">
    <tripinfo id="NS.0" depart="0.00" departLane="E1_1" departPos="5.10" departSpeed="20.30" departDelay="0.00" arrival="50.00" arrivalLane="E3_0" arrivalPos="501.31" arrivalSpeed="20.12" duration="50.00" routeLength="994.98" waitingTime="0.00" waitingCount="0" stopTime="0.00" timeLoss="0.63" rerouteNo="0" devices="tripinfo_NS.0 routing_NS.0" vType="car" speedFactor="1.01" vaporized=""/>
    <tripinfo id="BNS.0" depart="0.00" departLane="E1_2" departPos="12.10" departSpeed="20.12" departDelay="0.00" arrival="50.00" arrivalLane="E3_1" arrivalPos="501.31" arrivalSpeed="20.12" duration="50.00" routeLength="987.98" waitingTime="0.00" waitingCount="0" stopTime="0.00" timeLoss="0.19" rerouteNo="0" devices="tripinfo_BNS.0 routing_BNS.0" vType="bus" speedFactor="1.00" vaporized=""/>
    <tripinfo id="NS.1" depart="1.00" departLane="E1_2" departPos="5.10" departSpeed="17.06" departDelay="0.00" arrival="55.00" arrivalLane="E3_0" arrivalPos="501.31" arrivalSpeed="19.37" duration="54.00" routeLength="994.98" waitingTime="0.00" waitingCount="0" stopTime="0.00" timeLoss="1.97" rerouteNo="0" devices="tripinfo_NS.1 routing_NS.1" vType="car" speedFactor="0.96" vaporized=""/>
    <tripinfo id="SN.1" depart="11.00" departLane="-E3_2" departPos="5.10" departSpeed="24.22" departDelay="0.00" arrival="56.00" arrivalLane="-E1_0" arrivalPos="498.92" arrivalSpeed="24.22" duration="45.00" routeLength="995.07" waitingTime="0.00" waitingCount="0" stopTime="0.00" timeLoss="3.34" rerouteNo="0" devices="tripinfo_SN.1 routing_SN.1" vType="car" speedFactor="1.20" vaporized=""/>
    <tripinfo id="SN.0" depart="8.00" departLane="-E3_1" departPos="5.10" departSpeed="17.45" departDelay="0.00" arrival="66.00" arrivalLane="-E1_0" arrivalPos="498.92" arrivalSpeed="17.45" duration="58.00" routeLength="995.07" waitingTime="0.00" waitingCount="0" stopTime="0.00" timeLoss="0.34" rerouteNo="0" devices="tripinfo_SN.0 routing_SN.0" vType="car" speedFactor="0.87" vaporized=""/>
    <tripinfo id="SN.2" depart="13.00" departLane="-E3_1" departPos="5.10" departSpeed="20.23" departDelay="0.00" arrival="66.00" arrivalLane="-E1_1" arrivalPos="498.92" arrivalSpeed="20.23" duration="53.00" routeLength="995.07" waitingTime="0.00" waitingCount="0" stopTime="0.00" timeLoss="3.21" rerouteNo="0" devices="tripinfo_SN.2 routing_SN.2" vType="car" speedFactor="1.01" vaporized=""/>
    <tripinfo id="SW.0" depart="1.00" departLane="-E3_3" departPos="5.10" departSpeed="22.02" departDelay="0.00" arrival="68.00" arrivalLane="-E0_0" arrivalPos="500.03" arrivalSpeed="17.13" duration="67.00" routeLength="996.18" waitingTime="3.00" waitingCount="1" stopTime="0.00" timeLoss="14.70" rerouteNo="0" devices="tripinfo_SW.0 routing_SW.0" vType="car" speedFactor="1.09" vaporized=""/>
    <tripinfo id="SN.3" depart="21.00" departLane="-E3_1" departPos="5.10" departSpeed="23.52" departDelay="0.00" arrival="68.00" arrivalLane="-E1_1" arrivalPos="498.92" arrivalSpeed="22.16" duration="47.00" routeLength="995.07" waitingTime="0.00" waitingCount="0" stopTime="0.00" timeLoss="4.07" rerouteNo="0" devices="tripinfo_SN.3 routing_SN.3" vType="car" speedFactor="1.17" vaporized=""/>
    <tripinfo id="SW.1" depart="2.00" departLane="-E3_3" departPos="5.10" departSpeed="18.57" departDelay="0.00" arrival="75.00" arrivalLane="-E0_0" arrivalPos="500.03" arrivalSpeed="14.44" duration="73.00" routeLength="996.18" waitingTime="0.00" waitingCount="0" stopTime="0.00" timeLoss="11.41" rerouteNo="0" devices="tripinfo_SW.1 routing_SW.1" vType="car" speedFactor="0.92" vaporized=""/>
    <tripinfo id="SN.4" depart="24.00" departLane="-E3_1" departPos="5.10" departSpeed="19.22" departDelay="0.00" arrival="76.00" arrivalLane="-E1_0" arrivalPos="498.92" arrivalSpeed="19.22" duration="52.00" routeLength="995.07" waitingTime="0.00" waitingCount="0" stopTime="0.00" timeLoss="0.09" rerouteNo="0" devices="tripinfo_SN.4 routing_SN.4" vType="car" speedFactor="0.96" vaporized=""/>
    <tripinfo id="NS.2" depart="5.00" departLane="E1_1" departPos="5.10" departSpeed="16.20" departDelay="0.00" arrival="80.00" arrivalLane="E3_0" arrivalPos="501.31" arrivalSpeed="16.20" duration="75.00" routeLength="994.98" waitingTime="3.00" waitingCount="1" stopTime="0.00" timeLoss="13.59" rerouteNo="0" devices="tripinfo_NS.2 routing_NS.2" vType="car" speedFactor="0.81" vaporized=""/>
    <tripinfo id="NS.3" depart="31.00" departLane="E1_2" departPos="5.10" departSpeed="20.67" departDelay="0.00" arrival="80.00" arrivalLane="E3_1" arrivalPos="501.31" arrivalSpeed="20.67" duration="49.00" routeLength="994.98" waitingTime="0.00" waitingCount="0" stopTime="0.00" timeLoss="0.28" rerouteNo="0" devices="tripinfo_NS.3 routing_NS.3" vType="car" speedFactor="1.03" vaporized=""/>
    <tripinfo id="WN.0" depart="0.00" departLane="E0_2" departPos="5.10" departSpeed="16.43" departDelay="0.00" arrival="91.00" arrivalLane="-E1_0" arrivalPos="498.92" arrivalSpeed="21.12" duration="91.00" routeLength="993.15" waitingTime="25.00" waitingCount="1" stopTime="0.00" timeLoss="37.05" rerouteNo="0" devices="tripinfo_WN.0 routing_WN.0" vType="car" speedFactor="1.05" vaporized=""/>
    <tripinfo id="ES.0" depart="6.00" departLane="-E2_2" departPos="5.10" departSpeed="16.62" departDelay="0.00" arrival="91.00" arrivalLane="E3_0" arrivalPos="501.31" arrivalSpeed="21.36" duration="85.00" routeLength="1002.88" waitingTime="19.00" waitingCount="1" stopTime="0.00" timeLoss="31.04" rerouteNo="0" devices="tripinfo_ES.0 routing_ES.0" vType="car" speedFactor="1.06" vaporized=""/>
    <tripinfo id="WN.1" depart="4.00" departLane="E0_3" departPos="5.10" departSpeed="14.79" departDelay="0.00" arrival="93.00" arrivalLane="-E1_1" arrivalPos="498.92" arrivalSpeed="19.01" duration="89.00" routeLength="993.15" waitingTime="18.00" waitingCount="1" stopTime="0.00" timeLoss="29.25" rerouteNo="0" devices="tripinfo_WN.1 routing_WN.1" vType="car" speedFactor="0.94" vaporized=""/>
    <tripinfo id="WN.2" depart="11.00" departLane="E0_2" departPos="5.10" departSpeed="15.92" departDelay="0.00" arrival="95.00" arrivalLane="-E1_0" arrivalPos="498.92" arrivalSpeed="19.94" duration="84.00" routeLength="993.15" waitingTime="15.00" waitingCount="1" stopTime="0.00" timeLoss="28.62" rerouteNo="0" devices="tripinfo_WN.2 routing_WN.2" vType="car" speedFactor="1.02" vaporized=""/>
    <tripinfo id="ES.1" depart="19.00" departLane="-E2_3" departPos="5.10" departSpeed="13.30" departDelay="0.00" arrival="96.00" arrivalLane="E3_0" arrivalPos="501.31" arrivalSpeed="17.10" duration="77.00" routeLength="1002.88" waitingTime="0.00" waitingCount="0" stopTime="0.00" timeLoss="9.82" rerouteNo="0" devices="tripinfo_ES.1 routing_ES.1" vType="car" speedFactor="0.85" vaporized=""/>
    <tripinfo id="WS.0" depart="27.00" departLane="E0_0" departPos="5.10" departSpeed="13.77" departDelay="0.00" arrival="107.00" arrivalLane="E3_0" arrivalPos="501.31" arrivalSpeed="17.70" duration="80.00" routeLength="995.54" waitingTime="4.00" waitingCount="1" stopTime="0.00" timeLoss="15.79" rerouteNo="0" devices="tripinfo_WS.0 routing_WS.0" vType="car" speedFactor="0.88" vaporized=""/>
    <tripinfo id="EW.0" depart="1.00" departLane="-E2_0" departPos="5.10" departSpeed="16.33" departDelay="0.00" arrival="108.00" arrivalLane="-E0_0" arrivalPos="500.03" arrivalSpeed="16.33" duration="107.00" routeLength="1001.60" waitingTime="35.00" waitingCount="1" stopTime="0.00" timeLoss="45.37" rerouteNo="0" devices="tripinfo_EW.0 routing_EW.0" vType="car" speedFactor="1.04" vaporized=""/>
    <tripinfo id="WE.1" depart="37.00" departLane="E0_1" departPos="5.10" departSpeed="15.30" departDelay="0.00" arrival="109.00" arrivalLane="E2_0" arrivalPos="508.36" arrivalSpeed="15.30" duration="72.00" routeLength="1002.59" waitingTime="0.00" waitingCount="0" stopTime="0.00" timeLoss="5.97" rerouteNo="0" devices="tripinfo_WE.1 routing_WE.1" vType="car" speedFactor="0.98" vaporized=""/>
    <tripinfo id="EW.2" depart="33.00" departLane="-E2_1" departPos="5.10" departSpeed="16.49" departDelay="0.00" arrival="111.00" arrivalLane="-E0_0" arrivalPos="500.03" arrivalSpeed="16.41" duration="78.00" routeLength="1001.60" waitingTime="4.00" waitingCount="1" stopTime="0.00" timeLoss="17.23" rerouteNo="0" devices="tripinfo_EW.2 routing_EW.2" vType="car" speedFactor="1.05" vaporized=""/>
    <tripinfo id="EW.1" depart="21.00" departLane="-E2_1" departPos="5.10" departSpeed="13.93" departDelay="0.00" arrival="113.00" arrivalLane="-E0_0" arrivalPos="500.03" arrivalSpeed="13.70" duration="92.00" routeLength="1001.60" waitingTime="9.00" waitingCount="1" stopTime="0.00" timeLoss="19.70" rerouteNo="0" devices="tripinfo_EW.1 routing_EW.1" vType="car" speedFactor="0.89" vaporized=""/>
    <tripinfo id="EW.4" depart="40.00" departLane="-E2_1" departPos="5.10" departSpeed="17.37" departDelay="0.00" arrival="114.00" arrivalLane="-E0_1" arrivalPos="500.03" arrivalSpeed="17.01" duration="74.00" routeLength="1001.60" waitingTime="0.00" waitingCount="0" stopTime="0.00" timeLoss="16.09" rerouteNo="0" devices="tripinfo_EW.4 routing_EW.4" vType="car" speedFactor="1.11" vaporized=""/>
    <tripinfo id="SE.0" depart="52.00" departLane="-E3_0" departPos="5.10" departSpeed="20.03" departDelay="0.00" arrival="116.00" arrivalLane="E2_1" arrivalPos="508.36" arrivalSpeed="15.58" duration="64.00" routeLength="1004.51" waitingTime="0.00" waitingCount="0" stopTime="0.00" timeLoss="6.45" rerouteNo="0" devices="tripinfo_SE.0 routing_SE.0" vType="car" speedFactor="1.00" vaporized=""/>
    <tripinfo id="WE.0" depart="19.00" departLane="E0_0" departPos="5.10" departSpeed="12.28" departDelay="0.00" arrival="117.00" arrivalLane="E2_0" arrivalPos="508.36" arrivalSpeed="12.28" duration="98.00" routeLength="1002.59" waitingTime="7.00" waitingCount="1" stopTime="0.00" timeLoss="16.10" rerouteNo="0" devices="tripinfo_WE.0 routing_WE.0" vType="car" speedFactor="0.78" vaporized=""/>
    <tripinfo id="EW.3" depart="36.00" departLane="-E2_0" departPos="5.10" departSpeed="14.30" departDelay="0.00" arrival="117.00" arrivalLane="-E0_0" arrivalPos="500.03" arrivalSpeed="14.29" duration="81.00" routeLength="1001.60" waitingTime="0.00" waitingCount="0" stopTime="0.00" timeLoss="10.70" rerouteNo="0" devices="tripinfo_EW.3 routing_EW.3" vType="car" speedFactor="0.91" vaporized=""/>
    <tripinfo id="SN.6" depart="49.00" departLane="-E3_1" departPos="5.10" departSpeed="21.07" departDelay="0.00" arrival="119.00" arrivalLane="-E1_0" arrivalPos="498.92" arrivalSpeed="21.07" duration="70.00" routeLength="995.07" waitingTime="10.00" waitingCount="1" stopTime="0.00" timeLoss="22.55" rerouteNo="0" devices="tripinfo_SN.6 routing_SN.6" vType="car" speedFactor="1.05" vaporized=""/>
    <tripinfo id="SN.5" depart="44.00" departLane="-E3_2" departPos="5.10" departSpeed="18.44" departDelay="0.00" arrival="123.00" arrivalLane="-E1_0" arrivalPos="498.92" arrivalSpeed="18.41" duration="79.00" routeLength="995.07" waitingTime="11.00" waitingCount="1" stopTime="0.00" timeLoss="24.12" rerouteNo="0" devices="tripinfo_SN.5 routing_SN.5" vType="car" speedFactor="0.92" vaporized=""/>
    <tripinfo id="SN.7" depart="76.00" departLane="-E3_1" departPos="5.10" departSpeed="24.31" departDelay="0.00" arrival="123.00" arrivalLane="-E1_1" arrivalPos="498.92" arrivalSpeed="24.31" duration="47.00" routeLength="995.07" waitingTime="0.00" waitingCount="0" stopTime="0.00" timeLoss="5.92" rerouteNo="0" devices="tripinfo_SN.7 routing_SN.7" vType="car" speedFactor="1.21" vaporized=""/>
    <tripinfo id="WS.1" depart="57.00" departLane="E0_0" departPos="5.10" departSpeed="14.63" departDelay="0.00" arrival="124.00" arrivalLane="E3_0" arrivalPos="501.31" arrivalSpeed="18.81" duration="67.00" routeLength="995.54" waitingTime="0.00" waitingCount="0" stopTime="0.00" timeLoss="6.14" rerouteNo="0" devices="tripinfo_WS.1 routing_WS.1" vType="car" speedFactor="0.93" vaporized=""/>
    <tripinfo id="SE.1" depart="59.00" departLane="-E3_0" departPos="5.10" departSpeed="20.59" departDelay="0.00" arrival="126.00" arrivalLane="E2_1" arrivalPos="508.36" arrivalSpeed="16.02" duration="67.00" routeLength="1004.51" waitingTime="0.00" waitingCount="0" stopTime="0.00" timeLoss="10.93" rerouteNo="0" devices="tripinfo_SE.1 routing_SE.1" vType="car" speedFactor="1.02" vaporized=""/>
    <tripinfo id="WS.3" depart="70.00" departLane="E0_0" departPos="5.10" departSpeed="18.57" departDelay="0.00" arrival="129.00" arrivalLane="E3_1" arrivalPos="501.31" arrivalSpeed="23.87" duration="59.00" routeLength="995.54" waitingTime="0.00" waitingCount="0" stopTime="0.00" timeLoss="10.68" rerouteNo="0" devices="tripinfo_WS.3 routing_WS.3" vType="car" speedFactor="1.19" vaporized=""/>
    <tripinfo id="WS.2" depart="63.00" departLane="E0_0" departPos="5.10" departSpeed="14.50" departDelay="0.00" arrival="130.00" arrivalLane="E3_0" arrivalPos="501.31" arrivalSpeed="18.64" duration="67.00" routeLength="995.54" waitingTime="0.00" waitingCount="0" stopTime="0.00" timeLoss="5.84" rerouteNo="0" devices="tripinfo_WS.2 routing_WS.2" vType="car" speedFactor="0.93" vaporized=""/>
    <tripinfo id="SW.2" depart="40.00" departLane="-E3_3" departPos="5.10" departSpeed="16.29" departDelay="0.00" arrival="133.00" arrivalLane="-E0_1" arrivalPos="500.03" arrivalSpeed="12.67" duration="93.00" routeLength="996.18" waitingTime="13.00" waitingCount="1" stopTime="0.00" timeLoss="22.86" rerouteNo="0" devices="tripinfo_SW.2 routing_SW.2" vType="car" speedFactor="0.81" vaporized=""/>
    <tripinfo id="NS.5" depart="48.00" departLane="E1_1" departPos="5.10" departSpeed="21.36" departDelay="0.00" arrival="133.00" arrivalLane="E3_1" arrivalPos="501.31" arrivalSpeed="21.33" duration="85.00" routeLength="994.98" waitingTime="24.00" waitingCount="1" stopTime="0.00" timeLoss="37.50" rerouteNo="0" devices="tripinfo_NS.5 routing_NS.5" vType="car" speedFactor="1.06" vaporized=""/>
    <tripinfo id="NS.4" depart="40.00" departLane="E1_1" departPos="5.10" departSpeed="22.50" departDelay="0.00" arrival="134.00" arrivalLane="E3_0" arrivalPos="501.31" arrivalSpeed="21.75" duration="94.00" routeLength="994.98" waitingTime="34.00" waitingCount="1" stopTime="0.00" timeLoss="48.88" rerouteNo="0" devices="tripinfo_NS.4 routing_NS.4" vType="car" speedFactor="1.12" vaporized=""/>
    <tripinfo id="NW.0" depart="56.00" departLane="E1_0" departPos="5.10" departSpeed="16.04" departDelay="0.00" arrival="134.00" arrivalLane="-E0_0" arrivalPos="500.03" arrivalSpeed="12.48" duration="78.00" routeLength="993.70" waitingTime="0.00" waitingCount="0" stopTime="0.00" timeLoss="6.11" rerouteNo="0" devices="tripinfo_NW.0 routing_NW.0" vType="car" speedFactor="0.80" vaporized=""/>
    <tripinfo id="SN.9" depart="89.00" departLane="-E3_2" departPos="5.10" departSpeed="23.73" departDelay="0.00" arrival="134.00" arrivalLane="-E1_1" arrivalPos="498.92" arrivalSpeed="23.72" duration="45.00" routeLength="995.07" waitingTime="0.00" waitingCount="0" stopTime="0.00" timeLoss="3.00" rerouteNo="0" devices="tripinfo_SN.9 routing_SN.9" vType="car" speedFactor="1.18" vaporized=""/>
    <tripinfo id="SW.3" depart="61.00" departLane="-E3_3" departPos="5.10" departSpeed="17.25" departDelay="0.00" arrival="136.00" arrivalLane="-E0_0" arrivalPos="500.03" arrivalSpeed="13.23" duration="75.00" routeLength="996.18" waitingTime="0.00" waitingCount="0" stopTime="0.00" timeLoss="8.62" rerouteNo="0" devices="tripinfo_SW.3 routing_SW.3" vType="car" speedFactor="0.86" vaporized=""/>
    <tripinfo id="SW.4" depart="63.00" departLane="-E3_3" departPos="5.10" departSpeed="18.08" departDelay="0.00" arrival="136.00" arrivalLane="-E0_1" arrivalPos="500.03" arrivalSpeed="15.33" duration="73.00" routeLength="996.18" waitingTime="0.00" waitingCount="0" stopTime="0.00" timeLoss="15.18" rerouteNo="0" devices="tripinfo_SW.4 routing_SW.4" vType="car" speedFactor="0.99" vaporized=""/>
    <tripinfo id="NS.6" depart="55.00" departLane="E1_2" departPos="5.10" departSpeed="17.97" departDelay="0.00" arrival="138.00" arrivalLane="E3_1" arrivalPos="501.31" arrivalSpeed="17.97" duration="83.00" routeLength="994.98" waitingTime="15.00" waitingCount="1" stopTime="0.00" timeLoss="27.46" rerouteNo="0" devices="tripinfo_NS.6 routing_NS.6" vType="car" speedFactor="0.89" vaporized=""/>
    <tripinfo id="NS.7" depart="56.00" departLane="E1_1" departPos="5.10" departSpeed="19.70" departDelay="0.00" arrival="139.00" arrivalLane="E3_0" arrivalPos="501.31" arrivalSpeed="18.65" duration="83.00" routeLength="994.98" waitingTime="14.00" waitingCount="1" stopTime="0.00" timeLoss="32.16" rerouteNo="0" devices="tripinfo_NS.7 routing_NS.7" vType="car" speedFactor="0.98" vaporized=""/>
    <tripinfo id="NS.8" depart="59.00" departLane="E1_2" departPos="5.10" departSpeed="21.90" departDelay="0.00" arrival="140.00" arrivalLane="E3_1" arrivalPos="501.31" arrivalSpeed="20.16" duration="81.00" routeLength="994.98" waitingTime="15.00" waitingCount="1" stopTime="0.00" timeLoss="35.11" rerouteNo="0" devices="tripinfo_NS.8 routing_NS.8" vType="car" speedFactor="1.09" vaporized=""/>
    <tripinfo id="NS.9" depart="65.00" departLane="E1_1" departPos="5.10" departSpeed="20.22" departDelay="0.00" arrival="142.00" arrivalLane="E3_1" arrivalPos="501.31" arrivalSpeed="19.47" duration="77.00" routeLength="994.98" waitingTime="11.00" waitingCount="1" stopTime="0.00" timeLoss="27.44" rerouteNo="0" devices="tripinfo_NS.9 routing_NS.9" vType="car" speedFactor="1.01" vaporized=""/>
    <tripinfo id="NS.10" depart="69.00" departLane="E1_2" departPos="5.10" departSpeed="18.40" departDelay="0.00" arrival="142.00" arrivalLane="E3_0" arrivalPos="501.31" arrivalSpeed="18.24" duration="73.00" routeLength="994.98" waitingTime="3.00" waitingCount="1" stopTime="0.00" timeLoss="18.38" rerouteNo="0" devices="tripinfo_NS.10 routing_NS.10" vType="car" speedFactor="0.91" vaporized=""/>
    <tripinfo id="SN.8" depart="80.00" departLane="-E3_1" departPos="5.10" departSpeed="16.03" departDelay="0.00" arrival="143.00" arrivalLane="-E1_0" arrivalPos="498.92" arrivalSpeed="16.03" duration="63.00" routeLength="995.07" waitingTime="0.00" waitingCount="0" stopTime="0.00" timeLoss="0.10" rerouteNo="0" devices="tripinfo_SN.8 routing_SN.8" vType="car" speedFactor="0.80" vaporized=""/>
    <tripinfo id="NS.11" depart="71.00" departLane="E1_1" departPos="5.10" departSpeed="23.42" departDelay="0.00" arrival="144.00" arrivalLane="E3_0" arrivalPos="501.31" arrivalSpeed="20.68" duration="73.00" routeLength="994.98" waitingTime="0.00" waitingCount="0" stopTime="0.00" timeLoss="29.68" rerouteNo="0" devices="tripinfo_NS.11 routing_NS.11" vType="car" speedFactor="1.16" vaporized=""/>
    <tripinfo id="NS.12" depart="75.00" departLane="E1_1" departPos="5.10" departSpeed="19.35" departDelay="0.00" arrival="145.00" arrivalLane="E3_1" arrivalPos="501.31" arrivalSpeed="19.08" duration="70.00" routeLength="994.98" waitingTime="0.00" waitingCount="0" stopTime="0.00" timeLoss="17.60" rerouteNo="0" devices="tripinfo_NS.12 routing_NS.12" vType="car" speedFactor="0.96" vaporized=""/>
    <tripinfo id="NS.13" depart="78.00" departLane="E1_1" departPos="5.10" departSpeed="20.68" departDelay="0.00" arrival="145.00" arrivalLane="E3_0" arrivalPos="501.31" arrivalSpeed="18.87" duration="67.00" routeLength="994.98" waitingTime="0.00" waitingCount="0" stopTime="0.00" timeLoss="18.88" rerouteNo="0" devices="tripinfo_NS.13 routing_NS.13" vType="car" speedFactor="1.03" vaporized=""/>
    <tripinfo id="SN.10" depart="92.00" departLane="-E3_1" departPos="5.10" departSpeed="19.16" departDelay="0.00" arrival="145.00" arrivalLane="-E1_1" arrivalPos="498.92" arrivalSpeed="19.16" duration="53.00" routeLength="995.07" waitingTime="0.00" waitingCount="0" stopTime="0.00" timeLoss="0.92" rerouteNo="0" devices="tripinfo_SN.10 routing_SN.10" vType="car" speedFactor="0.95" vaporized=""/>
    <tripinfo id="NS.15" depart="88.00" departLane="E1_2" departPos="5.10" departSpeed="20.21" departDelay="0.00" arrival="147.00" arrivalLane="E3_1" arrivalPos="501.31" arrivalSpeed="19.41" duration="59.00" routeLength="994.98" waitingTime="0.00" waitingCount="0" stopTime="0.00" timeLoss="8.87" rerouteNo="0" devices="tripinfo_NS.15 routing_NS.15" vType="car" speedFactor="1.00" vaporized=""/>
    <tripinfo id="NS.14" depart="86.00" departLane="E1_1" departPos="5.10" departSpeed="18.90" departDelay="0.00" arrival="148.00" arrivalLane="E3_0" arrivalPos="501.31" arrivalSpeed="18.63" duration="62.00" routeLength="994.98" waitingTime="0.00" waitingCount="0" stopTime="0.00" timeLoss="8.73" rerouteNo="0" devices="tripinfo_NS.14 routing_NS.14" vType="car" speedFactor="0.94" vaporized=""/>
    <tripinfo id="SN.11" depart="93.00" departLane="-E3_2" departPos="5.10" departSpeed="19.02" departDelay="0.00" arrival="148.00" arrivalLane="-E1_0" arrivalPos="498.92" arrivalSpeed="19.00" duration="55.00" routeLength="995.07" waitingTime="0.00" waitingCount="0" stopTime="0.00" timeLoss="2.61" rerouteNo="0" devices="tripinfo_SN.11 routing_SN.11" vType="car" speedFactor="0.95" vaporized=""/>
    <tripinfo id="NS.16" depart="90.00" departLane="E1_1" departPos="5.10" departSpeed="20.02" departDelay="0.00" arrival="149.00" arrivalLane="E3_1" arrivalPos="501.31" arrivalSpeed="19.25" duration="59.00" routeLength="994.98" waitingTime="0.00" waitingCount="0" stopTime="0.00" timeLoss="8.46" rerouteNo="0" devices="tripinfo_NS.16 routing_NS.16" vType="car" speedFactor="0.99" vaporized=""/>
    <tripinfo id="SN.12" depart="95.00" departLane="-E3_1" departPos="5.10" departSpeed="20.85" departDelay="0.00" arrival="149.00" arrivalLane="-E1_1" arrivalPos="498.92" arrivalSpeed="20.78" duration="54.00" routeLength="995.07" waitingTime="0.00" waitingCount="0" stopTime="0.00" timeLoss="6.00" rerouteNo="0" devices="tripinfo_SN.12 routing_SN.12" vType="car" speedFactor="1.04" vaporized=""/>
    <tripinfo id="NW.1" depart="85.00" departLane="E1_0" departPos="5.10" departSpeed="19.40" departDelay="0.00" arrival="151.00" arrivalLane="-E0_0" arrivalPos="500.03" arrivalSpeed="15.09" duration="66.00" routeLength="993.70" waitingTime="0.00" waitingCount="0" stopTime="0.00" timeLoss="6.71" rerouteNo="0" devices="tripinfo_NW.1 routing_NW.1" vType="car" speedFactor="0.96" vaporized=""/>
    <tripinfo id="NS.17" depart="94.00" departLane="E1_2" departPos="5.10" departSpeed="20.40" departDelay="0.00" arrival="151.00" arrivalLane="E3_1" arrivalPos="501.31" arrivalSpeed="19.42" duration="57.00" routeLength="994.98" waitingTime="0.00" waitingCount="0" stopTime="0.00" timeLoss="7.35" rerouteNo="0" devices="tripinfo_NS.17 routing_NS.17" vType="car" speedFactor="1.01" vaporized=""/>
    <tripinfo id="WN.3" depart="91.00" departLane="E0_2" departPos="5.10" departSpeed="16.33" departDelay="0.00" arrival="155.00" arrivalLane="-E1_0" arrivalPos="498.92" arrivalSpeed="20.99" duration="64.00" routeLength="993.15" waitingTime="0.00" waitingCount="0" stopTime="0.00" timeLoss="9.81" rerouteNo="0" devices="tripinfo_WN.3 routing_WN.3" vType="car" speedFactor="1.04" vaporized=""/>
    <tripinfo id="SE.2" depart="92.00" departLane="-E3_0" departPos="5.10" departSpeed="19.44" departDelay="0.00" arrival="157.00" arrivalLane="E2_0" arrivalPos="508.36" arrivalSpeed="15.12" duration="65.00" routeLength="1004.51" waitingTime="0.00" waitingCount="0" stopTime="0.00" timeLoss="5.34" rerouteNo="0" devices="tripinfo_SE.2 routing_SE.2" vType="car" speedFactor="0.97" vaporized=""/>
    <tripinfo id="ES.2" depart="39.00" departLane="-E2_3" departPos="5.10" departSpeed="14.44" departDelay="0.00" arrival="158.00" arrivalLane="E3_1" arrivalPos="501.31" arrivalSpeed="18.57" duration="119.00" routeLength="1002.88" waitingTime="46.00" waitingCount="1" stopTime="0.00" timeLoss="56.98" rerouteNo="0" devices="tripinfo_ES.2 routing_ES.2" vType="car" speedFactor="0.92" vaporized=""/>
    <tripinfo id="ES.3" depart="61.00" departLane="-E2_3" departPos="5.10" departSpeed="14.71" departDelay="0.00" arrival="158.00" arrivalLane="E3_0" arrivalPos="501.31" arrivalSpeed="18.91" duration="97.00" routeLength="1002.88" waitingTime="24.00" waitingCount="1" stopTime="0.00" timeLoss="35.68" rerouteNo="0" devices="tripinfo_ES.3 routing_ES.3" vType="car" speedFactor="0.94" vaporized=""/>
    <tripinfo id="NW.2" depart="97.00" departLane="E1_0" departPos="5.10" departSpeed="22.57" departDelay="0.00" arrival="159.00" arrivalLane="-E0_1" arrivalPos="500.03" arrivalSpeed="17.56" duration="62.00" routeLength="993.70" waitingTime="0.00" waitingCount="0" stopTime="0.00" timeLoss="11.40" rerouteNo="0" devices="tripinfo_NW.2 routing_NW.2" vType="car" speedFactor="1.12" vaporized=""/>
    <tripinfo id="ES.4" depart="66.00" departLane="-E2_2" departPos="5.10" departSpeed="14.78" departDelay="0.00" arrival="161.00" arrivalLane="E3_0" arrivalPos="501.31" arrivalSpeed="18.88" duration="95.00" routeLength="1002.88" waitingTime="21.00" waitingCount="1" stopTime="0.00" timeLoss="34.10" rerouteNo="0" devices="tripinfo_ES.4 routing_ES.4" vType="car" speedFactor="0.94" vaporized=""/>
    <tripinfo id="ES.5" depart="77.00" departLane="-E2_3" departPos="5.10" departSpeed="12.45" departDelay="0.00" arrival="164.00" arrivalLane="E3_1" arrivalPos="501.31" arrivalSpeed="16.01" duration="87.00" routeLength="1002.88" waitingTime="4.00" waitingCount="1" stopTime="0.00" timeLoss="15.37" rerouteNo="0" devices="tripinfo_ES.5 routing_ES.5" vType="car" speedFactor="0.80" vaporized=""/>
    <tripinfo id="ES.6" depart="93.00" departLane="-E2_3" departPos="5.10" departSpeed="14.68" departDelay="0.00" arrival="165.00" arrivalLane="E3_0" arrivalPos="501.31" arrivalSpeed="17.10" duration="72.00" routeLength="1002.88" waitingTime="0.00" waitingCount="0" stopTime="0.00" timeLoss="11.12" rerouteNo="0" devices="tripinfo_ES.6 routing_ES.6" vType="car" speedFactor="0.94" vaporized=""/>
    <tripinfo id="WE.3" depart="116.00" departLane="E0_1" departPos="5.10" departSpeed="18.98" departDelay="0.00" arrival="170.00" arrivalLane="E2_1" arrivalPos="508.36" arrivalSpeed="18.98" duration="54.00" routeLength="1002.59" waitingTime="0.00" waitingCount="0" stopTime="0.00" timeLoss="1.07" rerouteNo="0" devices="tripinfo_WE.3 routing_WE.3" vType="car" speedFactor="1.21" vaporized=""/>
    <tripinfo id="EW.6" depart="58.00" departLane="-E2_1" departPos="5.10" departSpeed="14.76" departDelay="0.00" arrival="174.00" arrivalLane="-E0_0" arrivalPos="500.03" arrivalSpeed="14.76" duration="116.00" routeLength="1001.60" waitingTime="38.00" waitingCount="1" stopTime="0.00" timeLoss="47.78" rerouteNo="0" devices="tripinfo_EW.6 routing_EW.6" vType="car" speedFactor="0.94" vaporized=""/>
    <tripinfo id="WE.2" depart="99.00" departLane="E0_1" departPos="5.10" departSpeed="18.55" departDelay="0.00" arrival="174.00" arrivalLane="E2_1" arrivalPos="508.36" arrivalSpeed="18.50" duration="75.00" routeLength="1002.59" waitingTime="6.00" waitingCount="1" stopTime="0.00" timeLoss="20.19" rerouteNo="0" devices="tripinfo_WE.2 routing_WE.2" vType="car" speedFactor="1.19" vaporized=""/>
    <tripinfo id="SE.3" depart="110.00" departLane="-E3_0" departPos="5.10" departSpeed="19.93" departDelay="0.00" arrival="174.00" arrivalLane="E2_0" arrivalPos="508.36" arrivalSpeed="15.50" duration="64.00" routeLength="1004.51" waitingTime="0.00" waitingCount="0" stopTime="0.00" timeLoss="6.26" rerouteNo="0" devices="tripinfo_SE.3 routing_SE.3" vType="car" speedFactor="0.99" vaporized=""/>
    <tripinfo id="WS.4" depart="112.00" departLane="E0_0" departPos="5.10" departSpeed="16.11" departDelay="0.00" arrival="174.00" arrivalLane="E3_1" arrivalPos="501.31" arrivalSpeed="20.71" duration="62.00" routeLength="995.54" waitingTime="0.00" waitingCount="0" stopTime="0.00" timeLoss="6.56" rerouteNo="0" devices="tripinfo_WS.4 routing_WS.4" vType="car" speedFactor="1.03" vaporized=""/>
    <tripinfo id="EW.7" depart="71.00" departLane="-E2_1" departPos="5.10" departSpeed="16.58" departDelay="0.00" arrival="176.00" arrivalLane="-E0_0" arrivalPos="500.03" arrivalSpeed="16.05" duration="105.00" routeLength="1001.60" waitingTime="29.00" waitingCount="1" stopTime="0.00" timeLoss="44.38" rerouteNo="0" devices="tripinfo_EW.7 routing_EW.7" vType="car" speedFactor="1.06" vaporized=""/>
    <tripinfo id="EW.5" depart="57.00" departLane="-E2_0" departPos="5.10" departSpeed="13.33" departDelay="0.00" arrival="177.00" arrivalLane="-E0_0" arrivalPos="500.03" arrivalSpeed="13.33" duration="120.00" routeLength="1001.60" waitingTime="35.00" waitingCount="1" stopTime="0.00" timeLoss="44.84" rerouteNo="0" devices="tripinfo_EW.5 routing_EW.5" vType="car" speedFactor="0.85" vaporized=""/>
    <tripinfo id="EW.8" depart="74.00" departLane="-E2_0" departPos="5.10" departSpeed="17.45" departDelay="0.00" arrival="179.00" arrivalLane="-E0_1" arrivalPos="500.03" arrivalSpeed="16.59" duration="105.00" routeLength="1001.60" waitingTime="27.00" waitingCount="1" stopTime="0.00" timeLoss="47.01" rerouteNo="0" devices="tripinfo_EW.8 routing_EW.8" vType="car" speedFactor="1.11" vaporized=""/>