<?xml version="1.0" encoding="UTF-8"?>

<!-- generated on 2023-01-30 21:22:21 by Eclipse SUMO sumo Version 1.13.0
<configuration xmlns:xsi="http://www.w3.org/2001/XMLSchema-instance" xsi:noNamespaceSchemaLocation="http://sumo.dlr.de/xsd/sumoConfiguration.xsd">

    <input>
        <net-file value="data/Eastway-Central.net.xml"/>
        <route-files value="data/Eastway-Central-offpeak-conflict.rou.xml"/>
        <additional-files value="data/Eastway-Central.add.xml"/>
    </input>

    <output>
        <tripinfo-output value="result\2023-01-30-21-19-06\20_tripinfo.xml"/>
    </output>

    <report>
        <no-warnings value="true"/>
        <no-step-log value="true"/>
    </report>

    <traci_server>
        <remote-port value="54046"/>
    </traci_server>

    <random_number>
        <seed value="19"/>
    </random_number>

</configuration>
-->

<tripinfos xmlns:xsi="http://www.w3.org/2001/XMLSchema-instance" xsi:noNamespaceSchemaLocation="http://sumo.dlr.de/xsd/tripinfo_file.xsd">
    <tripinfo id="SN.0" depart="0.00" departLane="-E3_1" departPos="5.10" departSpeed="18.34" departDelay="0.00" arrival="55.00" arrivalLane="-E1_0" arrivalPos="498.92" arrivalSpeed="18.34" duration="55.00" routeLength="995.07" waitingTime="0.00" waitingCount="0" stopTime="0.00" timeLoss="0.07" rerouteNo="0" devices="tripinfo_SN.0 routing_SN.0" vType="car" speedFactor="0.91" vaporized=""/>
    <tripinfo id="NS.1" depart="8.00" departLane="E1_2" departPos="5.10" departSpeed="20.81" departDelay="0.00" arrival="56.00" arrivalLane="E3_1" arrivalPos="501.31" arrivalSpeed="20.81" duration="48.00" routeLength="994.98" waitingTime="0.00" waitingCount="0" stopTime="0.00" timeLoss="0.01" rerouteNo="0" devices="tripinfo_NS.1 routing_NS.1" vType="car" speedFactor="1.03" vaporized=""/>
    <tripinfo id="NS.3" depart="10.00" departLane="E1_2" departPos="5.10" departSpeed="22.24" departDelay="0.00" arrival="58.00" arrivalLane="E3_1" arrivalPos="501.31" arrivalSpeed="22.71" duration="48.00" routeLength="994.98" waitingTime="0.00" waitingCount="0" stopTime="0.00" timeLoss="6.81" rerouteNo="0" devices="tripinfo_NS.3 routing_NS.3" vType="car" speedFactor="1.21" vaporized=""/>
    <tripinfo id="NS.0" depart="5.00" departLane="E1_1" departPos="5.10" departSpeed="18.16" departDelay="0.00" arrival="60.00" arrivalLane="E3_0" arrivalPos="501.31" arrivalSpeed="18.16" duration="55.00" routeLength="994.98" waitingTime="0.00" waitingCount="0" stopTime="0.00" timeLoss="0.02" rerouteNo="0" devices="tripinfo_NS.0 routing_NS.0" vType="car" speedFactor="0.90" vaporized=""/>
    <tripinfo id="NS.2" depart="9.00" departLane="E1_1" departPos="5.10" departSpeed="23.44" departDelay="0.00" arrival="60.00" arrivalLane="E3_1" arrivalPos="501.31" arrivalSpeed="22.39" duration="51.00" routeLength="994.98" waitingTime="0.00" waitingCount="0" stopTime="0.00" timeLoss="8.20" rerouteNo="0" devices="tripinfo_NS.2 routing_NS.2" vType="car" speedFactor="1.17" vaporized=""/>
    <tripinfo id="SN.1" depart="11.00" departLane="-E3_2" departPos="5.10" departSpeed="20.25" departDelay="0.00" arrival="62.00" arrivalLane="-E1_0" arrivalPos="498.92" arrivalSpeed="20.25" duration="51.00" routeLength="995.07" waitingTime="0.00" waitingCount="0" stopTime="0.00" timeLoss="0.89" rerouteNo="0" devices="tripinfo_SN.1 routing_SN.1" vType="car" speedFactor="1.01" vaporized=""/>
    <tripinfo id="WN.1" depart="9.00" departLane="E0_3" departPos="5.10" departSpeed="15.01" departDelay="0.00" arrival="70.00" arrivalLane="-E1_1" arrivalPos="498.92" arrivalSpeed="19.30" duration="61.00" routeLength="993.15" waitingTime="0.00" waitingCount="0" stopTime="0.00" timeLoss="2.08" rerouteNo="0" devices="tripinfo_WN.1 routing_WN.1" vType="car" speedFactor="0.96" vaporized=""/>
    <tripinfo id="WN.0" depart="0.00" departLane="E0_2" departPos="5.10" departSpeed="17.94" departDelay="0.00" arrival="71.00" arrivalLane="-E1_0" arrivalPos="498.92" arrivalSpeed="20.49" duration="71.00" routeLength="993.15" waitingTime="5.00" waitingCount="1" stopTime="0.00" timeLoss="21.23" rerouteNo="0" devices="tripinfo_WN.0 routing_WN.0" vType="car" speedFactor="1.15" vaporized=""/>
    <tripinfo id="NW.0" depart="19.00" departLane="E1_0" departPos="5.10" departSpeed="24.05" departDelay="0.00" arrival="76.00" arrivalLane="-E0_0" arrivalPos="500.03" arrivalSpeed="18.71" duration="57.00" routeLength="993.70" waitingTime="0.00" waitingCount="0" stopTime="0.00" timeLoss="9.18" rerouteNo="0" devices="tripinfo_NW.0 routing_NW.0" vType="car" speedFactor="1.20" vaporized=""/>
    <tripinfo id="WE.0" depart="21.00" departLane="E0_0" departPos="5.10" departSpeed="17.73" departDelay="0.00" arrival="78.00" arrivalLane="E2_0" arrivalPos="508.36" arrivalSpeed="17.73" duration="57.00" routeLength="1002.59" waitingTime="0.00" waitingCount="0" stopTime="0.00" timeLoss="0.29" rerouteNo="0" devices="tripinfo_WE.0 routing_WE.0" vType="car" speedFactor="1.13" vaporized=""/>
    <tripinfo id="EW.1" depart="15.00" departLane="-E2_1" departPos="5.10" departSpeed="15.64" departDelay="0.00" arrival="86.00" arrivalLane="-E0_0" arrivalPos="500.03" arrivalSpeed="15.64" duration="71.00" routeLength="1001.60" waitingTime="0.00" waitingCount="0" stopTime="0.00" timeLoss="6.37" rerouteNo="0" devices="tripinfo_EW.1 routing_EW.1" vType="car" speedFactor="1.00" vaporized=""/>
    <tripinfo id="EW.0" depart="6.00" departLane="-E2_0" departPos="5.10" departSpeed="14.68" departDelay="0.00" arrival="89.00" arrivalLane="-E0_1" arrivalPos="500.03" arrivalSpeed="14.68" duration="83.00" routeLength="1001.60" waitingTime="3.00" waitingCount="1" stopTime="0.00" timeLoss="14.44" rerouteNo="0" devices="tripinfo_EW.0 routing_EW.0" vType="car" speedFactor="0.94" vaporized=""/>
    <tripinfo id="WS.0" depart="30.00" departLane="E0_0" departPos="5.10" departSpeed="17.12" departDelay="0.00" arrival="89.00" arrivalLane="E3_0" arrivalPos="501.31" arrivalSpeed="22.01" duration="59.00" routeLength="995.54" waitingTime="0.00" waitingCount="0" stopTime="0.00" timeLoss="6.49" rerouteNo="0" devices="tripinfo_WS.0 routing_WS.0" vType="car" speedFactor="1.09" vaporized=""/>
    <tripinfo id="EW.2" depart="31.00" departLane="-E2_1" departPos="5.10" departSpeed="15.81" departDelay="0.00" arrival="95.00" arrivalLane="-E0_0" arrivalPos="500.03" arrivalSpeed="15.81" duration="64.00" routeLength="1001.60" waitingTime="0.00" waitingCount="0" stopTime="0.00" timeLoss="0.50" rerouteNo="0" devices="tripinfo_EW.2 routing_EW.2" vType="car" speedFactor="1.01" vaporized=""/>
    <tripinfo id="SN.3" depart="16.00" departLane="-E3_2" departPos="5.10" departSpeed="24.70" departDelay="0.00" arrival="96.00" arrivalLane="-E1_0" arrivalPos="498.92" arrivalSpeed="24.70" duration="80.00" routeLength="995.07" waitingTime="24.00" waitingCount="1" stopTime="0.00" timeLoss="38.80" rerouteNo="0" devices="tripinfo_SN.3 routing_SN.3" vType="car" speedFactor="1.23" vaporized=""/>
    <tripinfo id="SN.4" depart="20.00" departLane="-E3_1" departPos="5.10" departSpeed="21.41" departDelay="0.00" arrival="100.00" arrivalLane="-E1_1" arrivalPos="498.92" arrivalSpeed="21.41" duration="80.00" routeLength="995.07" waitingTime="20.00" waitingCount="1" stopTime="0.00" timeLoss="33.31" rerouteNo="0" devices="tripinfo_SN.4 routing_SN.4" vType="car" speedFactor="1.06" vaporized=""/>
    <tripinfo id="SN.2" depart="14.00" departLane="-E3_1" departPos="5.10" departSpeed="19.04" departDelay="0.00" arrival="101.00" arrivalLane="-E1_0" arrivalPos="498.92" arrivalSpeed="19.04" duration="87.00" routeLength="995.07" waitingTime="22.00" waitingCount="1" stopTime="0.00" timeLoss="33.76" rerouteNo="0" devices="tripinfo_SN.2 routing_SN.2" vType="car" speedFactor="0.95" vaporized=""/>
    <tripinfo id="SN.6" depart="24.00" departLane="-E3_1" departPos="5.10" departSpeed="20.23" departDelay="0.00" arrival="103.00" arrivalLane="-E1_0" arrivalPos="498.92" arrivalSpeed="19.73" duration="79.00" routeLength="995.07" waitingTime="12.00" waitingCount="1" stopTime="0.00" timeLoss="29.29" rerouteNo="0" devices="tripinfo_SN.6 routing_SN.6" vType="car" speedFactor="1.01" vaporized=""/>
    <tripinfo id="SN.5" depart="23.00" departLane="-E3_2" departPos="5.10" departSpeed="20.78" departDelay="0.00" arrival="104.00" arrivalLane="-E1_1" arrivalPos="498.92" arrivalSpeed="20.72" duration="81.00" routeLength="995.07" waitingTime="18.00" waitingCount="1" stopTime="0.00" timeLoss="32.21" rerouteNo="0" devices="tripinfo_SN.5 routing_SN.5" vType="car" speedFactor="1.03" vaporized=""/>
    <tripinfo id="SN.8" depart="29.00" departLane="-E3_1" departPos="5.10" departSpeed="21.57" departDelay="0.00" arrival="106.00" arrivalLane="-E1_1" arrivalPos="498.92" arrivalSpeed="20.99" duration="77.00" routeLength="995.07" waitingTime="11.00" waitingCount="1" stopTime="0.00" timeLoss="30.30" rerouteNo="0" devices="tripinfo_SN.8 routing_SN.8" vType="car" speedFactor="1.07" vaporized=""/>
    <tripinfo id="SW.1" depart="31.00" departLane="-E3_3" departPos="5.10" departSpeed="20.38" departDelay="0.00" arrival="107.00" arrivalLane="-E0_1" arrivalPos="500.03" arrivalSpeed="15.85" duration="76.00" routeLength="996.18" waitingTime="8.00" waitingCount="1" stopTime="0.00" timeLoss="19.80" rerouteNo="0" devices="tripinfo_SW.1 routing_SW.1" vType="car" speedFactor="1.01" vaporized=""/>
    <tripinfo id="WS.1" depart="45.00" departLane="E0_0" departPos="5.10" departSpeed="15.89" departDelay="0.00" arrival="107.00" arrivalLane="E3_0" arrivalPos="501.31" arrivalSpeed="20.43" duration="62.00" routeLength="995.54" waitingTime="0.00" waitingCount="0" stopTime="0.00" timeLoss="5.96" rerouteNo="0" devices="tripinfo_WS.1 routing_WS.1" vType="car" speedFactor="1.02" vaporized=""/>
    <tripinfo id="SN.7" depart="28.00" departLane="-E3_2" departPos="5.10" departSpeed="17.07" departDelay="0.00" arrival="108.00" arrivalLane="-E1_0" arrivalPos="498.92" arrivalSpeed="17.06" duration="80.00" routeLength="995.07" waitingTime="8.00" waitingCount="1" stopTime="0.00" timeLoss="21.02" rerouteNo="0" devices="tripinfo_SN.7 routing_SN.7" vType="car" speedFactor="0.85" vaporized=""/>
    <tripinfo id="SN.10" depart="39.00" departLane="-E3_1" departPos="5.10" departSpeed="21.19" departDelay="0.00" arrival="108.00" arrivalLane="-E1_1" arrivalPos="498.92" arrivalSpeed="20.63" duration="69.00" routeLength="995.07" waitingTime="5.00" waitingCount="1" stopTime="0.00" timeLoss="21.81" rerouteNo="0" devices="tripinfo_SN.10 routing_SN.10" vType="car" speedFactor="1.05" vaporized=""/>
    <tripinfo id="SW.0" depart="6.00" departLane="-E3_3" departPos="5.10" departSpeed="17.76" departDelay="0.00" arrival="109.00" arrivalLane="-E0_0" arrivalPos="500.03" arrivalSpeed="13.81" duration="103.00" routeLength="996.18" waitingTime="28.00" waitingCount="1" stopTime="0.00" timeLoss="38.62" rerouteNo="0" devices="tripinfo_SW.0 routing_SW.0" vType="car" speedFactor="0.88" vaporized=""/>
    <tripinfo id="ES.1" depart="23.00" departLane="-E2_3" departPos="5.10" departSpeed="16.94" departDelay="0.00" arrival="108.00" arrivalLane="E3_0" arrivalPos="501.31" arrivalSpeed="2.60" duration="85.00" routeLength="1002.88" waitingTime="46.00" waitingCount="1" stopTime="0.00" timeLoss="55.33" rerouteNo="0" devices="tripinfo_ES.1 routing_ES.1" vType="car" speedFactor="1.08" vaporized="teleport"/>
    <tripinfo id="EW.4" depart="58.00" departLane="-E2_1" departPos="5.10" departSpeed="17.09" departDelay="0.00" arrival="108.00" arrivalLane="-E0_0" arrivalPos="500.03" arrivalSpeed="2.60" duration="50.00" routeLength="1001.60" waitingTime="11.00" waitingCount="1" stopTime="0.00" timeLoss="20.55" rerouteNo="0" devices="tripinfo_EW.4 routing_EW.4" vType="car" speedFactor="1.09" vaporized="teleport"/>
    <tripinfo id="NS.5" depart="17.00" departLane="E1_2" departPos="5.10" departSpeed="19.28" departDelay="0.00" arrival="111.00" arrivalLane="E3_0" arrivalPos="501.31" arrivalSpeed="19.26" duration="94.00" routeLength="994.98" waitingTime="30.00" waitingCount="1" stopTime="0.00" timeLoss="42.14" rerouteNo="0" devices="tripinfo_NS.5 routing_NS.5" vType="car" speedFactor="0.96" vaporized=""/>
    <tripinfo id="SN.9" depart="32.00" departLane="-E3_2" departPos="5.10" departSpeed="17.08" departDelay="0.00" arrival="111.00" arrivalLane="-E1_0" arrivalPos="498.92" arrivalSpeed="16.98" duration="79.00" routeLength="995.07" waitingTime="6.00" waitingCount="1" stopTime="0.00" timeLoss="20.14" rerouteNo="0" devices="tripinfo_SN.9 routing_SN.9" vType="car" speedFactor="0.85" vaporized=""/>
    <tripinfo id="SN.11" depart="54.00" departLane="-E3_1" departPos="5.10" departSpeed="19.34" departDelay="0.00" arrival="111.00" arrivalLane="-E1_1" arrivalPos="498.92" arrivalSpeed="19.22" duration="57.00" routeLength="995.07" waitingTime="0.00" waitingCount="0" stopTime="0.00" timeLoss="5.39" rerouteNo="0" devices="tripinfo_SN.11 routing_SN.11" vType="car" speedFactor="0.96" vaporized=""/>
    <tripinfo id="NS.4" depart="14.00" departLane="E1_1" departPos="5.10" departSpeed="18.21" departDelay="0.00" arrival="113.00" arrivalLane="E3_0" arrivalPos="501.31" arrivalSpeed="17.83" duration="99.00" routeLength="994.98" waitingTime="32.00" waitingCount="1" stopTime="0.00" timeLoss="44.24" rerouteNo="0" devices="tripinfo_NS.4 routing_NS.4" vType="car" speedFactor="0.90" vaporized=""/>
    <tripinfo id="NS.6" depart="27.00" departLane="E1_1" departPos="5.10" departSpeed="20.53" departDelay="0.00" arrival="113.00" arrivalLane="E3_1" arrivalPos="501.31" arrivalSpeed="20.51" duration="86.00" routeLength="994.98" waitingTime="23.00" waitingCount="1" stopTime="0.00" timeLoss="37.32" rerouteNo="0" devices="tripinfo_NS.6 routing_NS.6" vType="car" speedFactor="1.02" vaporized=""/>
    <tripinfo id="NW.1" depart="50.00" departLane="E1_0" departPos="5.10" departSpeed="21.23" departDelay="0.00" arrival="113.00" arrivalLane="-E0_1" arrivalPos="500.03" arrivalSpeed="16.51" duration="63.00" routeLength="993.70" waitingTime="0.00" waitingCount="0" stopTime="0.00" timeLoss="9.27" rerouteNo="0" devices="tripinfo_NW.1 routing_NW.1" vType="car" speedFactor="1.06" vaporized=""/>
    <tripinfo id="SE.0" depart="52.00" departLane="-E3_0" departPos="5.10" departSpeed="21.63" departDelay="0.00" arrival="113.00" arrivalLane="E2_0" arrivalPos="508.36" arrivalSpeed="16.83" duration="61.00" routeLength="1004.51" waitingTime="0.00" waitingCount="0" stopTime="0.00" timeLoss="7.52" rerouteNo="0" devices="tripinfo_SE.0 routing_SE.0" vType="car" speedFactor="1.08" vaporized=""/>
    <tripinfo id="SN.12" depart="62.00" departLane="-E3_1" departPos="5.10" departSpeed="20.81" departDelay="0.00" arrival="114.00" arrivalLane="-E1_1" arrivalPos="498.92" arrivalSpeed="20.37" duration="52.00" routeLength="995.07" waitingTime="0.00" waitingCount="0" stopTime="0.00" timeLoss="3.21" rerouteNo="0" devices="tripinfo_SN.12 routing_SN.12" vType="car" speedFactor="1.03" vaporized=""/>
    <tripinfo id="NS.7" depart="34.00" departLane="E1_1" departPos="5.10" departSpeed="18.18" departDelay="0.00" arrival="116.00" arrivalLane="E3_0" arrivalPos="501.31" arrivalSpeed="18.01" duration="82.00" routeLength="994.98" waitingTime="11.00" waitingCount="1" stopTime="0.00" timeLoss="26.98" rerouteNo="0" devices="tripinfo_NS.7 routing_NS.7" vType="car" speedFactor="0.90" vaporized=""/>
    <tripinfo id="EN.0" depart="37.00" departLane="-E2_0" departPos="5.10" departSpeed="16.50" departDelay="0.00" arrival="116.00" arrivalLane="-E1_1" arrivalPos="498.92" arrivalSpeed="20.72" duration="79.00" routeLength="1000.49" waitingTime="11.00" waitingCount="1" stopTime="0.00" timeLoss="24.76" rerouteNo="0" devices="tripinfo_EN.0 routing_EN.0" vType="car" speedFactor="1.05" vaporized=""/>
    <tripinfo id="NS.8" depart="38.00" departLane="E1_2" departPos="5.10" departSpeed="19.32" departDelay="0.00" arrival="117.00" arrivalLane="E3_1" arrivalPos="501.31" arrivalSpeed="19.27" duration="79.00" routeLength="994.98" waitingTime="11.00" waitingCount="1" stopTime="0.00" timeLoss="26.56" rerouteNo="0" devices="tripinfo_NS.8 routing_NS.8" vType="car" speedFactor="0.96" vaporized=""/>
    <tripinfo id="NS.9" depart="41.00" departLane="E1_1" departPos="5.10" departSpeed="21.41" departDelay="0.00" arrival="119.00" arrivalLane="E3_1" arrivalPos="501.31" arrivalSpeed="20.39" duration="78.00" routeLength="994.98" waitingTime="11.00" waitingCount="1" stopTime="0.00" timeLoss="30.62" rerouteNo="0" devices="tripinfo_NS.9 routing_NS.9" vType="car" speedFactor="1.06" vaporized=""/>
    <tripinfo id="NS.10" depart="48.00" departLane="E1_1" departPos="5.10" departSpeed="18.73" departDelay="0.00" arrival="119.00" arrivalLane="E3_0" arrivalPos="501.31" arrivalSpeed="18.46" duration="71.00" routeLength="994.98" waitingTime="1.00" waitingCount="1" stopTime="0.00" timeLoss="16.94" rerouteNo="0" devices="tripinfo_NS.10 routing_NS.10" vType="car" speedFactor="0.93" vaporized=""/>
    <tripinfo id="NS.11" depart="49.00" departLane="E1_2" departPos="5.10" departSpeed="20.32" departDelay="0.00" arrival="121.00" arrivalLane="E3_1" arrivalPos="501.31" arrivalSpeed="19.73" duration="72.00" routeLength="994.98" waitingTime="4.00" waitingCount="1" stopTime="0.00" timeLoss="22.33" rerouteNo="0" devices="tripinfo_NS.11 routing_NS.11" vType="car" speedFactor="1.01" vaporized=""/>
    <tripinfo id="NS.13" depart="56.00" departLane="E1_1" departPos="5.10" departSpeed="19.41" departDelay="0.00" arrival="121.00" arrivalLane="E3_0" arrivalPos="501.31" arrivalSpeed="18.72" duration="65.00" routeLength="994.98" waitingTime="0.00" waitingCount="0" stopTime="0.00" timeLoss="12.93" rerouteNo="0" devices="tripinfo_NS.13 routing_NS.13" vType="car" speedFactor="0.96" vaporized=""/>
    <tripinfo id="NS.15" depart="58.00" departLane="E1_1" departPos="5.10" departSpeed="21.17" departDelay="0.00" arrival="122.00" arrivalLane="E3_0" arrivalPos="501.31" arrivalSpeed="18.79" duration="64.00" routeLength="994.98" waitingTime="0.00" waitingCount="0" stopTime="0.00" timeLoss="16.94" rerouteNo="0" devices="tripinfo_NS.15 routing_NS.15" vType="car" speedFactor="1.05" vaporized=""/>
    <tripinfo id="NS.12" depart="53.00" departLane="E1_1" departPos="5.10" departSpeed="20.23" departDelay="0.00" arrival="123.00" arrivalLane="E3_1" arrivalPos="501.31" arrivalSpeed="19.58" duration="70.00" routeLength="994.98" waitingTime="2.00" waitingCount="1" stopTime="0.00" timeLoss="20.30" rerouteNo="0" devices="tripinfo_NS.12 routing_NS.12" vType="car" speedFactor="1.01" vaporized=""/>
    <tripinfo id="SN.13" depart="72.00" departLane="-E3_1" departPos="5.10" departSpeed="21.39" departDelay="0.00" arrival="123.00" arrivalLane="-E1_1" arrivalPos="498.92" arrivalSpeed="21.38" duration="51.00" routeLength="995.07" waitingTime="0.00" waitingCount="0" stopTime="0.00" timeLoss="3.66" rerouteNo="0" devices="tripinfo_SN.13 routing_SN.13" vType="car" speedFactor="1.06" vaporized=""/>
    <tripinfo id="NS.14" depart="57.00" departLane="E1_2" departPos="5.10" departSpeed="21.17" departDelay="0.00" arrival="124.00" arrivalLane="E3_0" arrivalPos="501.31" arrivalSpeed="19.58" duration="67.00" routeLength="994.98" waitingTime="0.00" waitingCount="0" stopTime="0.00" timeLoss="19.74" rerouteNo="0" devices="tripinfo_NS.14 routing_NS.14" vType="car" speedFactor="1.05" vaporized=""/>
    <tripinfo id="NS.16" depart="59.00" departLane="E1_2" departPos="5.10" departSpeed="22.49" departDelay="0.00" arrival="125.00" arrivalLane="E3_1" arrivalPos="501.31" arrivalSpeed="20.73" duration="66.00" routeLength="994.98" waitingTime="0.00" waitingCount="0" stopTime="0.00" timeLoss="21.01" rerouteNo="0" devices="tripinfo_NS.16 routing_NS.16" vType="car" speedFactor="1.12" vaporized=""/>
    <tripinfo id="NS.17" depart="67.00" departLane="E1_1" departPos="5.10" departSpeed="18.82" departDelay="0.00" arrival="127.00" arrivalLane="E3_0" arrivalPos="501.31" arrivalSpeed="18.68" duration="60.00" routeLength="994.98" waitingTime="0.00" waitingCount="0" stopTime="0.00" timeLoss="7.02" rerouteNo="0" devices="tripinfo_NS.17 routing_NS.17" vType="car" speedFactor="0.94" vaporized=""/>
    <tripinfo id="NS.18" depart="76.00" departLane="E1_2" departPos="5.10" departSpeed="22.58" departDelay="0.00" arrival="128.00" arrivalLane="E3_1" arrivalPos="501.31" arrivalSpeed="22.20" duration="52.00" routeLength="994.98" waitingTime="0.00" waitingCount="0" stopTime="0.00" timeLoss="7.23" rerouteNo="0" devices="tripinfo_NS.18 routing_NS.18" vType="car" speedFactor="1.12" vaporized=""/>
    <tripinfo id="SN.14" depart="77.00" departLane="-E3_1" departPos="5.10" departSpeed="19.90" departDelay="0.00" arrival="128.00" arrivalLane="-E1_0" arrivalPos="498.92" arrivalSpeed="19.90" duration="51.00" routeLength="995.07" waitingTime="0.00" waitingCount="0" stopTime="0.00" timeLoss="0.64" rerouteNo="0" devices="tripinfo_SN.14 routing_SN.14" vType="car" speedFactor="0.99" vaporized=""/>
    <tripinfo id="NW.2" depart="69.00" departLane="E1_0" departPos="5.10" departSpeed="21.85" departDelay="0.00" arrival="130.00" arrivalLane="-E0_1" arrivalPos="500.03" arrivalSpeed="17.00" duration="61.00" routeLength="993.70" waitingTime="0.00" waitingCount="0" stopTime="0.00" timeLoss="8.85" rerouteNo="0" devices="tripinfo_NW.2 routing_NW.2" vType="car" speedFactor="1.09" vaporized=""/>
    <tripinfo id="WS.2" depart="48.00" departLane="E0_0" departPos="5.10" departSpeed="16.12" departDelay="0.00" arrival="136.00" arrivalLane="E3_1" arrivalPos="501.31" arrivalSpeed="20.73" duration="88.00" routeLength="995.54" waitingTime="20.00" waitingCount="1" stopTime="0.00" timeLoss="32.41" rerouteNo="0" devices="tripinfo_WS.2 routing_WS.2" vType="car" speedFactor="1.03" vaporized=""/>
    <tripinfo id="NW.3" depart="75.00" departLane="E1_0" departPos="5.10" departSpeed="22.57" departDelay="0.00" arrival="139.00" arrivalLane="-E0_0" arrivalPos="500.03" arrivalSpeed="17.55" duration="64.00" routeLength="993.70" waitingTime="1.00" waitingCount="1" stopTime="0.00" timeLoss="13.44" rerouteNo="0" devices="tripinfo_NW.3 routing_NW.3" vType="car" speedFactor="1.12" vaporized=""/>
    <tripinfo id="ES.0" depart="20.00" departLane="-E2_2" departPos="5.10" departSpeed="13.61" departDelay="0.00" arrival="140.00" arrivalLane="E3_0" arrivalPos="501.31" arrivalSpeed="17.48" duration="120.00" routeLength="1002.88" waitingTime="43.00" waitingCount="1" stopTime="0.00" timeLoss="54.01" rerouteNo="0" devices="tripinfo_ES.0 routing_ES.0" vType="car" speedFactor="0.87" vaporized=""/>
    <tripinfo id="ES.2" depart="25.00" departLane="-E2_2" departPos="5.10" departSpeed="13.75" departDelay="0.00" arrival="142.00" arrivalLane="E3_0" arrivalPos="501.31" arrivalSpeed="17.43" duration="117.00" routeLength="1002.88" waitingTime="40.00" waitingCount="1" stopTime="0.00" timeLoss="51.90" rerouteNo="0" devices="tripinfo_ES.2 routing_ES.2" vType="car" speedFactor="0.88" vaporized=""/>
    <tripinfo id="ES.3" depart="48.00" departLane="-E2_3" departPos="5.10" departSpeed="14.51" departDelay="0.00" arrival="142.00" arrivalLane="E3_1" arrivalPos="501.31" arrivalSpeed="18.38" duration="94.00" routeLength="1002.88" waitingTime="18.00" waitingCount="1" stopTime="0.00" timeLoss="32.40" rerouteNo="0" devices="tripinfo_ES.3 routing_ES.3" vType="car" speedFactor="0.93" vaporized=""/>
    <tripinfo id="ES.5" depart="80.00" departLane="-E2_3" departPos="5.10" departSpeed="15.03" departDelay="0.00" arrival="144.00" arrivalLane="E3_1" arrivalPos="501.31" arrivalSpeed="18.69" duration="64.00" routeLength="1002.88" waitingTime="0.00" waitingCount="0" stopTime="0.00" timeLoss="4.82" rerouteNo="0" devices="tripinfo_ES.5 routing_ES.5" vType="car" speedFactor="0.96" vaporized=""/>
    <tripinfo id="EW.3" depart="46.00" departLane="-E2_1" departPos="5.10" departSpeed="14.47" departDelay="0.00" arrival="145.00" arrivalLane="-E0_0" arrivalPos="500.03" arrivalSpeed="14.47" duration="99.00" routeLength="1001.60" waitingTime="19.00" waitingCount="1" stopTime="0.00" timeLoss="29.50" rerouteNo="0" devices="tripinfo_EW.3 routing_EW.3" vType="car" speedFactor="0.92" vaporized=""/>
    <tripinfo id="ES.4" depart="66.00" departLane="-E2_3" departPos="5.10" departSpeed="13.95" departDelay="0.00" arrival="145.00" arrivalLane="E3_0" arrivalPos="501.31" arrivalSpeed="17.77" duration="79.00" routeLength="1002.88" waitingTime="1.00" waitingCount="1" stopTime="0.00" timeLoss="14.57" rerouteNo="0" devices="tripinfo_ES.4 routing_ES.4" vType="car" speedFactor="0.89" vaporized=""/>
    <tripinfo id="EW.6" depart="74.00" departLane="-E2_1" departPos="5.10" departSpeed="14.54" departDelay="0.00" arrival="147.00" arrivalLane="-E0_1" arrivalPos="500.03" arrivalSpeed="14.54" duration="73.00" routeLength="1001.60" waitingTime="0.00" waitingCount="0" stopTime="0.00" timeLoss="3.72" rerouteNo="0" devices="tripinfo_EW.6 routing_EW.6" vType="car" speedFactor="0.93" vaporized=""/>
    <tripinfo id="EW.5" depart="63.00" departLane="-E2_0" departPos="5.10" departSpeed="15.19" departDelay="0.00" arrival="148.00" arrivalLane="-E0_0" arrivalPos="500.03" arrivalSpeed="15.08" duration="85.00" routeLength="1001.60" waitingTime="5.00" waitingCount="1" stopTime="0.00" timeLoss="18.41" rerouteNo="0" devices="tripinfo_EW.5 routing_EW.5" vType="car" speedFactor="0.97" vaporized=""/>
    <tripinfo id="EW.7" depart="83.00" departLane="-E2_1" departPos="5.10" departSpeed="15.57" departDelay="0.00" arrival="150.00" arrivalLane="-E0_1" arrivalPos="500.03" arrivalSpeed="15.49" duration="67.00" routeLength="1001.60" waitingTime="0.00" waitingCount="0" stopTime="0.00" timeLoss="2.45" rerouteNo="0" devices="tripinfo_EW.7 routing_EW.7" vType="car" speedFactor="1.00" vaporized=""/>
    <tripinfo id="SE.1" depart="83.00" departLane="-E3_0" departPos="5.10" departSpeed="19.13" departDelay="0.00" arrival="150.00" arrivalLane="E2_0" arrivalPos="508.36" arrivalSpeed="14.88" duration="67.00" routeLength="1004.51" waitingTime="0.00" waitingCount="0" stopTime="0.00" timeLoss="6.14" rerouteNo="0" devices="tripinfo_SE.1 routing_SE.1" vType="car" speedFactor="0.95" vaporized=""/>
    <tripinfo id="WS.3" depart="96.00" departLane="E0_0" departPos="5.10" departSpeed="16.41" departDelay="0.00" arrival="156.00" arrivalLane="E3_1" arrivalPos="501.31" arrivalSpeed="21.10" duration="60.00" routeLength="995.54" waitingTime="0.00" waitingCount="0" stopTime="0.00" timeLoss="6.05" rerouteNo="0" devices="tripinfo_WS.3 routing_WS.3" vType="car" speedFactor="1.05" vaporized=""/>
    <tripinfo id="SE.2" depart="96.00" departLane="-E3_0" departPos="5.10" departSpeed="22.47" departDelay="0.00" arrival="158.00" arrivalLane="E2_0" arrivalPos="508.36" arrivalSpeed="17.47" duration="62.00" routeLength="1004.51" waitingTime="0.00" waitingCount="0" stopTime="0.00" timeLoss="10.45" rerouteNo="0" devices="tripinfo_SE.2 routing_SE.2" vType="car" speedFactor="1.12" vaporized=""/>
    <tripinfo id="NE.1" depart="56.00" departLane="E1_3" departPos="5.10" departSpeed="20.88" departDelay="0.00" arrival="162.00" arrivalLane="E2_1" arrivalPos="508.36" arrivalSpeed="16.24" duration="106.00" routeLength="1002.03" waitingTime="37.00" waitingCount="1" stopTime="0.00" timeLoss="50.91" rerouteNo="0" devices="tripinfo_NE.1 routing_NE.1" vType="car" speedFactor="1.04" vaporized=""/>
    <tripinfo id="NS.19" depart="80.00" departLane="E1_1" departPos="5.10" departSpeed="21.18" departDelay="0.00" arrival="162.00" arrivalLane="E3_0" arrivalPos="501.31" arrivalSpeed="21.17" duration="82.00" routeLength="994.98" waitingTime="22.00" waitingCount="1" stopTime="0.00" timeLoss="34.85" rerouteNo="0" devices="tripinfo_NS.19 routing_NS.19" vType="car" speedFactor="1.05" vaporized=""/>
    <tripinfo id="NE.0" depart="45.00" departLane="E1_3" departPos="5.10" departSpeed="18.67" departDelay="0.00" arrival="163.00" arrivalLane="E2_0" arrivalPos="508.36" arrivalSpeed="14.52" duration="118.00" routeLength="1002.03" waitingTime="44.00" waitingCount="1" stopTime="0.00" timeLoss="55.75" rerouteNo="0" devices="tripinfo_NE.0 routing_NE.0" vType="car" speedFactor="0.93" vaporized=""/>
    <tripinfo id="SW.2" depart="69.00" departLane="-E3_3" departPos="5.10" departSpeed="17.28" departDelay="0.00" arrival="164.00" arrivalLane="-E0_0" arrivalPos="500.03" arrivalSpeed="13.44" duration="95.00" routeLength="996.18" waitingTime="18.00" waitingCount="1" stopTime="0.00" timeLoss="28.78" rerouteNo="0" devices="tripinfo_SW.2 routing_SW.2" vType="car" speedFactor="0.86" vaporized=""/>
    <tripinfo id="NW.4" depart="96.00" departLane="E1_0" departPos="5.10" departSpeed="17.88" departDelay="0.00" arrival="165.00" arrivalLane="-E0_1" arrivalPos="500.03" arrivalSpeed="13.91" duration="69.00" routeLength="993.70" waitingTime="0.00" waitingCount="0" stopTime="0.00" timeLoss="5.11" rerouteNo="0" devices="tripinfo_NW.4 routing_NW.4" vType="car" speedFactor="0.89" vaporized=""/>
    <tripinfo id="NS.20" depart="85.00" departLane="E1_2" departPos="5.10" departSpeed="17.92" departDelay="0.00" arrival="166.00" arrivalLane="E3_0" arrivalPos="501.31" arrivalSpeed="17.91" duration="81.00" routeLength="994.98" waitingTime="13.00" waitingCount="1" stopTime="0.00" timeLoss="25.32" rerouteNo="0" devices="tripinfo_NS.20 routing_NS.20" vType="car" speedFactor="0.89" vaporized=""/>
    <tripinfo id="NS.21" depart="88.00" departLane="E1_1" departPos="5.10" departSpeed="19.63" departDelay="0.00" arrival="167.00" arrivalLane="E3_1" arrivalPos="501.31" arrivalSpeed="19.63" duration="79.00" routeLength="994.98" waitingTime="13.00" waitingCount="1" stopTime="0.00" timeLoss="27.44" rerouteNo="0" devices="tripinfo_NS.21 routing_NS.21" vType="car" speedFactor="0.98" vaporized=""/>
    <tripinfo id="NE.2" depart="93.00" departLane="E1_3" departPos="5.10" departSpeed="18.81" departDelay="0.00" arrival="167.00" arrivalLane="E2_0" arrivalPos="508.36" arrivalSpeed="14.62" duration="74.00" routeLength="1002.03" waitingTime="0.00" waitingCount="0" stopTime="0.00" timeLoss="12.89" rerouteNo="0" devices="tripinfo_NE.2 routing_NE.2" vType="car" speedFactor="0.93" vaporized=""/>