<?xml version="1.0" encoding="UTF-8"?>

<!-- generated on 2023-01-30 11:58:50 by Eclipse SUMO sumo Version 1.13.0
<configuration xmlns:xsi="http://www.w3.org/2001/XMLSchema-instance" xsi:noNamespaceSchemaLocation="http://sumo.dlr.de/xsd/sumoConfiguration.xsd">

    <input>
        <net-file value="data/Eastway-Central.net.xml"/>
        <route-files value="data/cav60-offpeak.rou.xml"/>
        <additional-files value="data/Eastway-Central.add.xml"/>
    </input>

    <output>
        <tripinfo-output value="result\2023-01-30-11-54-29\28_tripinfo.xml"/>
    </output>

    <report>
        <no-warnings value="true"/>
        <no-step-log value="true"/>
    </report>

    <traci_server>
        <remote-port value="53757"/>
    </traci_server>

    <random_number>
        <seed value="27"/>
    </random_number>

</configuration>
-->

<tripinfos xmlns:xsi="http://www.w3.org/2001/XMLSchema-instance" xsi:noNamespaceSchemaLocation="http://sumo.dlr.de/xsd/tripinfo_file.xsd">
    <tripinfo id="SN.cv.0" depart="4.00" departLane="-E3_2" departPos="5.10" departSpeed="23.14" departDelay="0.00" arrival="48.00" arrivalLane="-E1_0" arrivalPos="498.92" arrivalSpeed="23.14" duration="44.00" routeLength="995.07" waitingTime="0.00" waitingCount="0" stopTime="0.00" timeLoss="0.07" rerouteNo="0" devices="tripinfo_SN.cv.0 routing_SN.cv.0" vType="cv" speedFactor="1.15" vaporized=""/>
    <tripinfo id="BNS.0" depart="0.00" departLane="E1_1" departPos="12.10" departSpeed="20.12" departDelay="0.00" arrival="50.00" arrivalLane="E3_0" arrivalPos="501.31" arrivalSpeed="20.12" duration="50.00" routeLength="987.98" waitingTime="0.00" waitingCount="0" stopTime="0.00" timeLoss="0.19" rerouteNo="0" devices="tripinfo_BNS.0 routing_BNS.0" vType="bus" speedFactor="1.00" vaporized=""/>
    <tripinfo id="WS.cv.0" depart="1.00" departLane="E0_0" departPos="5.10" departSpeed="17.17" departDelay="0.00" arrival="60.00" arrivalLane="E3_0" arrivalPos="501.31" arrivalSpeed="22.07" duration="59.00" routeLength="995.54" waitingTime="0.00" waitingCount="0" stopTime="0.00" timeLoss="6.60" rerouteNo="0" devices="tripinfo_WS.cv.0 routing_WS.cv.0" vType="cv" speedFactor="1.10" vaporized=""/>
    <tripinfo id="EW.0" depart="6.00" departLane="-E2_0" departPos="5.10" departSpeed="17.92" departDelay="0.00" arrival="61.00" arrivalLane="-E0_0" arrivalPos="500.03" arrivalSpeed="2.60" duration="55.00" routeLength="1001.60" waitingTime="18.00" waitingCount="1" stopTime="0.00" timeLoss="26.92" rerouteNo="0" devices="tripinfo_EW.0 routing_EW.0" vType="car" speedFactor="1.14" vaporized="teleport"/>
    <tripinfo id="NE.cv.0" depart="1.00" departLane="E1_3" departPos="5.10" departSpeed="23.56" departDelay="0.00" arrival="64.00" arrivalLane="E2_0" arrivalPos="508.36" arrivalSpeed="18.33" duration="63.00" routeLength="1002.03" waitingTime="1.00" waitingCount="1" stopTime="0.00" timeLoss="13.53" rerouteNo="0" devices="tripinfo_NE.cv.0 routing_NE.cv.0" vType="cv" speedFactor="1.17" vaporized=""/>
    <tripinfo id="NS.cv.0" depart="15.00" departLane="E1_2" departPos="5.10" departSpeed="19.72" departDelay="0.00" arrival="66.00" arrivalLane="E3_0" arrivalPos="501.31" arrivalSpeed="19.72" duration="51.00" routeLength="994.98" waitingTime="0.00" waitingCount="0" stopTime="0.00" timeLoss="0.53" rerouteNo="0" devices="tripinfo_NS.cv.0 routing_NS.cv.0" vType="cv" speedFactor="0.98" vaporized=""/>
    <tripinfo id="SN.cv.1" depart="7.00" departLane="-E3_1" departPos="5.10" departSpeed="20.75" departDelay="0.00" arrival="71.00" arrivalLane="-E1_0" arrivalPos="498.92" arrivalSpeed="20.75" duration="64.00" routeLength="995.07" waitingTime="3.00" waitingCount="1" stopTime="0.00" timeLoss="15.11" rerouteNo="0" devices="tripinfo_SN.cv.1 routing_SN.cv.1" vType="cv" speedFactor="1.03" vaporized=""/>
    <tripinfo id="SN.cv.2" depart="10.00" departLane="-E3_1" departPos="5.10" departSpeed="21.92" departDelay="0.00" arrival="73.00" arrivalLane="-E1_1" arrivalPos="498.92" arrivalSpeed="21.91" duration="63.00" routeLength="995.07" waitingTime="2.00" waitingCount="1" stopTime="0.00" timeLoss="16.72" rerouteNo="0" devices="tripinfo_SN.cv.2 routing_SN.cv.2" vType="cv" speedFactor="1.09" vaporized=""/>
    <tripinfo id="NS.cv.1" depart="16.00" departLane="E1_1" departPos="5.10" departSpeed="17.94" departDelay="0.00" arrival="73.00" arrivalLane="E3_0" arrivalPos="501.31" arrivalSpeed="17.94" duration="57.00" routeLength="994.98" waitingTime="0.00" waitingCount="0" stopTime="0.00" timeLoss="0.60" rerouteNo="0" devices="tripinfo_NS.cv.1 routing_NS.cv.1" vType="cv" speedFactor="0.89" vaporized=""/>
    <tripinfo id="SN.0" depart="3.00" departLane="-E3_1" departPos="5.10" departSpeed="17.53" departDelay="0.00" arrival="74.00" arrivalLane="-E1_0" arrivalPos="498.92" arrivalSpeed="17.51" duration="71.00" routeLength="995.07" waitingTime="3.00" waitingCount="1" stopTime="0.00" timeLoss="14.15" rerouteNo="0" devices="tripinfo_SN.0 routing_SN.0" vType="car" speedFactor="0.87" vaporized=""/>
    <tripinfo id="NS.cv.2" depart="20.00" departLane="E1_2" departPos="5.10" departSpeed="18.88" departDelay="0.00" arrival="74.00" arrivalLane="E3_1" arrivalPos="501.31" arrivalSpeed="18.88" duration="54.00" routeLength="994.98" waitingTime="0.00" waitingCount="0" stopTime="0.00" timeLoss="0.71" rerouteNo="0" devices="tripinfo_NS.cv.2 routing_NS.cv.2" vType="cv" speedFactor="0.94" vaporized=""/>
    <tripinfo id="SN.1" depart="15.00" departLane="-E3_2" departPos="5.10" departSpeed="23.01" departDelay="0.00" arrival="75.00" arrivalLane="-E1_1" arrivalPos="498.92" arrivalSpeed="22.30" duration="60.00" routeLength="995.07" waitingTime="0.00" waitingCount="0" stopTime="0.00" timeLoss="16.11" rerouteNo="0" devices="tripinfo_SN.1 routing_SN.1" vType="car" speedFactor="1.14" vaporized=""/>
    <tripinfo id="SN.cv.3" depart="13.00" departLane="-E3_1" departPos="5.10" departSpeed="19.53" departDelay="0.00" arrival="76.00" arrivalLane="-E1_0" arrivalPos="498.92" arrivalSpeed="18.77" duration="63.00" routeLength="995.07" waitingTime="0.00" waitingCount="0" stopTime="0.00" timeLoss="12.02" rerouteNo="0" devices="tripinfo_SN.cv.3 routing_SN.cv.3" vType="cv" speedFactor="0.97" vaporized=""/>
    <tripinfo id="NW.cv.1" depart="3.00" departLane="E1_0" departPos="5.10" departSpeed="15.88" departDelay="0.00" arrival="78.00" arrivalLane="-E0_0" arrivalPos="500.03" arrivalSpeed="14.32" duration="75.00" routeLength="993.70" waitingTime="0.00" waitingCount="0" stopTime="0.00" timeLoss="12.31" rerouteNo="0" devices="tripinfo_NW.cv.1 routing_NW.cv.1" vType="cv" speedFactor="0.91" vaporized=""/>
    <tripinfo id="NS.cv.3" depart="25.00" departLane="E1_1" departPos="5.10" departSpeed="19.42" departDelay="0.00" arrival="78.00" arrivalLane="E3_0" arrivalPos="501.31" arrivalSpeed="19.36" duration="53.00" routeLength="994.98" waitingTime="0.00" waitingCount="0" stopTime="0.00" timeLoss="1.01" rerouteNo="0" devices="tripinfo_NS.cv.3 routing_NS.cv.3" vType="cv" speedFactor="0.96" vaporized=""/>
    <tripinfo id="NS.cv.6" depart="31.00" departLane="E1_2" departPos="5.10" departSpeed="22.13" departDelay="0.00" arrival="78.00" arrivalLane="E3_1" arrivalPos="501.31" arrivalSpeed="22.03" duration="47.00" routeLength="994.98" waitingTime="0.00" waitingCount="0" stopTime="0.00" timeLoss="1.85" rerouteNo="0" devices="tripinfo_NS.cv.6 routing_NS.cv.6" vType="cv" speedFactor="1.10" vaporized=""/>
    <tripinfo id="SN.2" depart="17.00" departLane="-E3_1" departPos="5.10" departSpeed="19.16" departDelay="0.00" arrival="79.00" arrivalLane="-E1_0" arrivalPos="498.92" arrivalSpeed="18.97" duration="62.00" routeLength="995.07" waitingTime="0.00" waitingCount="0" stopTime="0.00" timeLoss="9.91" rerouteNo="0" devices="tripinfo_SN.2 routing_SN.2" vType="car" speedFactor="0.95" vaporized=""/>
    <tripinfo id="SE.cv.0" depart="18.00" departLane="-E3_0" departPos="5.10" departSpeed="23.18" departDelay="0.00" arrival="79.00" arrivalLane="E2_0" arrivalPos="508.36" arrivalSpeed="18.03" duration="61.00" routeLength="1004.51" waitingTime="0.00" waitingCount="0" stopTime="0.00" timeLoss="11.20" rerouteNo="0" devices="tripinfo_SE.cv.0 routing_SE.cv.0" vType="cv" speedFactor="1.15" vaporized=""/>
    <tripinfo id="SN.3" depart="26.00" departLane="-E3_2" departPos="5.10" departSpeed="20.63" departDelay="0.00" arrival="80.00" arrivalLane="-E1_1" arrivalPos="498.92" arrivalSpeed="20.61" duration="54.00" routeLength="995.07" waitingTime="0.00" waitingCount="0" stopTime="0.00" timeLoss="5.61" rerouteNo="0" devices="tripinfo_SN.3 routing_SN.3" vType="car" speedFactor="1.03" vaporized=""/>
    <tripinfo id="NS.cv.5" depart="29.00" departLane="E1_1" departPos="5.10" departSpeed="25.42" departDelay="0.00" arrival="80.00" arrivalLane="E3_1" arrivalPos="501.31" arrivalSpeed="23.60" duration="51.00" routeLength="994.98" waitingTime="0.00" waitingCount="0" stopTime="0.00" timeLoss="11.44" rerouteNo="0" devices="tripinfo_NS.cv.5 routing_NS.cv.5" vType="cv" speedFactor="1.26" vaporized=""/>
    <tripinfo id="NS.cv.4" depart="28.00" departLane="E1_2" departPos="5.10" departSpeed="19.51" departDelay="0.00" arrival="81.00" arrivalLane="E3_0" arrivalPos="501.31" arrivalSpeed="19.39" duration="53.00" routeLength="994.98" waitingTime="0.00" waitingCount="0" stopTime="0.00" timeLoss="1.61" rerouteNo="0" devices="tripinfo_NS.cv.4 routing_NS.cv.4" vType="cv" speedFactor="0.97" vaporized=""/>
    <tripinfo id="NW.cv.0" depart="1.00" departLane="E1_0" departPos="5.10" departSpeed="14.79" departDelay="0.00" arrival="82.00" arrivalLane="-E0_0" arrivalPos="500.03" arrivalSpeed="11.50" duration="81.00" routeLength="993.70" waitingTime="0.00" waitingCount="0" stopTime="0.00" timeLoss="3.95" rerouteNo="0" devices="tripinfo_NW.cv.0 routing_NW.cv.0" vType="cv" speedFactor="0.73" vaporized=""/>
    <tripinfo id="NW.cv.2" depart="19.00" departLane="E1_0" departPos="5.10" departSpeed="21.25" departDelay="0.00" arrival="82.00" arrivalLane="-E0_1" arrivalPos="500.03" arrivalSpeed="16.53" duration="63.00" routeLength="993.70" waitingTime="0.00" waitingCount="0" stopTime="0.00" timeLoss="9.46" rerouteNo="0" devices="tripinfo_NW.cv.2 routing_NW.cv.2" vType="cv" speedFactor="1.06" vaporized=""/>
    <tripinfo id="SN.cv.4" depart="18.00" departLane="-E3_2" departPos="5.10" departSpeed="14.88" departDelay="0.00" arrival="86.00" arrivalLane="-E1_0" arrivalPos="498.92" arrivalSpeed="14.88" duration="68.00" routeLength="995.07" waitingTime="0.00" waitingCount="0" stopTime="0.00" timeLoss="0.67" rerouteNo="0" devices="tripinfo_SN.cv.4 routing_SN.cv.4" vType="cv" speedFactor="0.74" vaporized=""/>
    <tripinfo id="ES.cv.0" depart="7.00" departLane="-E2_2" departPos="5.10" departSpeed="16.91" departDelay="0.00" arrival="88.00" arrivalLane="E3_0" arrivalPos="501.31" arrivalSpeed="21.73" duration="81.00" routeLength="1002.88" waitingTime="15.00" waitingCount="1" stopTime="0.00" timeLoss="27.72" rerouteNo="0" devices="tripinfo_ES.cv.0 routing_ES.cv.0" vType="cv" speedFactor="1.08" vaporized=""/>
    <tripinfo id="ES.0" depart="33.00" departLane="-E2_2" departPos="5.10" departSpeed="16.98" departDelay="0.00" arrival="90.00" arrivalLane="E3_1" arrivalPos="501.31" arrivalSpeed="21.83" duration="57.00" routeLength="1002.88" waitingTime="0.00" waitingCount="0" stopTime="0.00" timeLoss="3.65" rerouteNo="0" devices="tripinfo_ES.0 routing_ES.0" vType="car" speedFactor="1.08" vaporized=""/>
    <tripinfo id="ES.cv.1" depart="30.00" departLane="-E2_3" departPos="5.10" departSpeed="14.79" departDelay="0.00" arrival="93.00" arrivalLane="E3_0" arrivalPos="501.31" arrivalSpeed="19.01" duration="63.00" routeLength="1002.88" waitingTime="0.00" waitingCount="0" stopTime="0.00" timeLoss="2.43" rerouteNo="0" devices="tripinfo_ES.cv.1 routing_ES.cv.1" vType="cv" speedFactor="0.94" vaporized=""/>
    <tripinfo id="SE.0" depart="36.00" departLane="-E3_0" departPos="5.10" departSpeed="23.43" departDelay="0.00" arrival="93.00" arrivalLane="E2_0" arrivalPos="508.36" arrivalSpeed="18.22" duration="57.00" routeLength="1004.51" waitingTime="0.00" waitingCount="0" stopTime="0.00" timeLoss="7.56" rerouteNo="0" devices="tripinfo_SE.0 routing_SE.0" vType="car" speedFactor="1.16" vaporized=""/>
    <tripinfo id="EW.1" depart="25.00" departLane="-E2_1" departPos="5.10" departSpeed="15.64" departDelay="0.00" arrival="95.00" arrivalLane="-E0_0" arrivalPos="500.03" arrivalSpeed="15.64" duration="70.00" routeLength="1001.60" waitingTime="0.00" waitingCount="0" stopTime="0.00" timeLoss="5.03" rerouteNo="0" devices="tripinfo_EW.1 routing_EW.1" vType="car" speedFactor="1.00" vaporized=""/>
    <tripinfo id="NW.0" depart="27.00" departLane="E1_0" departPos="5.10" departSpeed="19.51" departDelay="0.00" arrival="97.00" arrivalLane="-E0_1" arrivalPos="500.03" arrivalSpeed="15.18" duration="70.00" routeLength="993.70" waitingTime="0.00" waitingCount="0" stopTime="0.00" timeLoss="10.83" rerouteNo="0" devices="tripinfo_NW.0 routing_NW.0" vType="car" speedFactor="0.97" vaporized=""/>
    <tripinfo id="WS.cv.1" depart="23.00" departLane="E0_0" departPos="5.10" departSpeed="15.94" departDelay="0.00" arrival="103.00" arrivalLane="E3_0" arrivalPos="501.31" arrivalSpeed="20.49" duration="80.00" routeLength="995.54" waitingTime="12.00" waitingCount="1" stopTime="0.00" timeLoss="24.22" rerouteNo="0" devices="tripinfo_WS.cv.1 routing_WS.cv.1" vType="cv" speedFactor="1.02" vaporized=""/>
    <tripinfo id="EW.cv.0" depart="39.00" departLane="-E2_1" departPos="5.10" departSpeed="15.82" departDelay="0.00" arrival="103.00" arrivalLane="-E0_0" arrivalPos="500.03" arrivalSpeed="15.82" duration="64.00" routeLength="1001.60" waitingTime="0.00" waitingCount="0" stopTime="0.00" timeLoss="0.50" rerouteNo="0" devices="tripinfo_EW.cv.0 routing_EW.cv.0" vType="cv" speedFactor="1.01" vaporized=""/>
    <tripinfo id="WS.cv.2" depart="36.00" departLane="E0_0" departPos="5.10" departSpeed="16.54" departDelay="0.00" arrival="106.00" arrivalLane="E3_1" arrivalPos="501.31" arrivalSpeed="21.26" duration="70.00" routeLength="995.54" waitingTime="1.00" waitingCount="1" stopTime="0.00" timeLoss="15.83" rerouteNo="0" devices="tripinfo_WS.cv.2 routing_WS.cv.2" vType="cv" speedFactor="1.06" vaporized=""/>
    <tripinfo id="NW.1" depart="43.00" departLane="E1_0" departPos="5.10" departSpeed="20.08" departDelay="0.00" arrival="107.00" arrivalLane="-E0_0" arrivalPos="500.03" arrivalSpeed="15.60" duration="64.00" routeLength="993.70" waitingTime="0.00" waitingCount="0" stopTime="0.00" timeLoss="7.16" rerouteNo="0" devices="tripinfo_NW.1 routing_NW.1" vType="car" speedFactor="1.00" vaporized=""/>
    <tripinfo id="WE.cv.0" depart="11.00" departLane="E0_1" departPos="5.10" departSpeed="15.34" departDelay="0.00" arrival="109.00" arrivalLane="E2_0" arrivalPos="508.36" arrivalSpeed="15.34" duration="98.00" routeLength="1002.59" waitingTime="21.00" waitingCount="1" stopTime="0.00" timeLoss="31.67" rerouteNo="0" devices="tripinfo_WE.cv.0 routing_WE.cv.0" vType="cv" speedFactor="0.98" vaporized=""/>
    <tripinfo id="EW.2" depart="54.00" departLane="-E2_1" departPos="5.10" departSpeed="18.53" departDelay="0.00" arrival="109.00" arrivalLane="-E0_1" arrivalPos="500.03" arrivalSpeed="18.53" duration="55.00" routeLength="1001.60" waitingTime="0.00" waitingCount="0" stopTime="0.00" timeLoss="0.50" rerouteNo="0" devices="tripinfo_EW.2 routing_EW.2" vType="car" speedFactor="1.18" vaporized=""/>
    <tripinfo id="WE.cv.1" depart="12.00" departLane="E0_0" departPos="5.10" departSpeed="14.82" departDelay="0.00" arrival="110.00" arrivalLane="E2_0" arrivalPos="508.36" arrivalSpeed="14.82" duration="98.00" routeLength="1002.59" waitingTime="18.00" waitingCount="1" stopTime="0.00" timeLoss="29.42" rerouteNo="0" devices="tripinfo_WE.cv.1 routing_WE.cv.1" vType="cv" speedFactor="0.95" vaporized=""/>
    <tripinfo id="WE.cv.2" depart="43.00" departLane="E0_0" departPos="5.10" departSpeed="19.60" departDelay="0.00" arrival="111.00" arrivalLane="E2_1" arrivalPos="508.36" arrivalSpeed="17.58" duration="68.00" routeLength="1002.59" waitingTime="0.00" waitingCount="0" stopTime="0.00" timeLoss="16.49" rerouteNo="0" devices="tripinfo_WE.cv.2 routing_WE.cv.2" vType="cv" speedFactor="1.25" vaporized=""/>
    <tripinfo id="WE.0" depart="38.00" departLane="E0_1" departPos="5.10" departSpeed="14.78" departDelay="0.00" arrival="114.00" arrivalLane="E2_0" arrivalPos="508.36" arrivalSpeed="14.77" duration="76.00" routeLength="1002.59" waitingTime="0.00" waitingCount="0" stopTime="0.00" timeLoss="8.12" rerouteNo="0" devices="tripinfo_WE.0 routing_WE.0" vType="car" speedFactor="0.94" vaporized=""/>
    <tripinfo id="SN.5" depart="48.00" departLane="-E3_2" departPos="5.10" departSpeed="23.63" departDelay="0.00" arrival="115.00" arrivalLane="-E1_1" arrivalPos="498.92" arrivalSpeed="23.63" duration="67.00" routeLength="995.07" waitingTime="11.00" waitingCount="1" stopTime="0.00" timeLoss="24.66" rerouteNo="0" devices="tripinfo_SN.5 routing_SN.5" vType="car" speedFactor="1.17" vaporized=""/>
    <tripinfo id="SN.cv.5" depart="34.00" departLane="-E3_1" departPos="5.10" departSpeed="20.66" departDelay="0.00" arrival="118.00" arrivalLane="-E1_0" arrivalPos="498.92" arrivalSpeed="20.66" duration="84.00" routeLength="995.07" waitingTime="22.00" waitingCount="1" stopTime="0.00" timeLoss="35.00" rerouteNo="0" devices="tripinfo_SN.cv.5 routing_SN.cv.5" vType="cv" speedFactor="1.03" vaporized=""/>
    <tripinfo id="EW.cv.1" depart="46.00" departLane="-E2_0" departPos="5.10" departSpeed="13.68" departDelay="0.00" arrival="120.00" arrivalLane="-E0_0" arrivalPos="500.03" arrivalSpeed="13.68" duration="74.00" routeLength="1001.60" waitingTime="0.00" waitingCount="0" stopTime="0.00" timeLoss="0.12" rerouteNo="0" devices="tripinfo_EW.cv.1 routing_EW.cv.1" vType="cv" speedFactor="0.87" vaporized=""/>
    <tripinfo id="SW.cv.0" depart="22.00" departLane="-E3_3" departPos="5.10" departSpeed="23.35" departDelay="0.00" arrival="121.00" arrivalLane="-E0_1" arrivalPos="500.03" arrivalSpeed="18.16" duration="99.00" routeLength="996.18" waitingTime="37.00" waitingCount="1" stopTime="0.00" timeLoss="49.25" rerouteNo="0" devices="tripinfo_SW.cv.0 routing_SW.cv.0" vType="cv" speedFactor="1.16" vaporized=""/>
    <tripinfo id="SN.6" depart="64.00" departLane="-E3_2" departPos="5.10" departSpeed="19.47" departDelay="0.00" arrival="121.00" arrivalLane="-E1_1" arrivalPos="498.92" arrivalSpeed="19.47" duration="57.00" routeLength="995.07" waitingTime="0.00" waitingCount="0" stopTime="0.00" timeLoss="5.32" rerouteNo="0" devices="tripinfo_SN.6 routing_SN.6" vType="car" speedFactor="0.97" vaporized=""/>
    <tripinfo id="SN.4" depart="45.00" departLane="-E3_1" departPos="5.10" departSpeed="19.36" departDelay="0.00" arrival="122.00" arrivalLane="-E1_0" arrivalPos="498.92" arrivalSpeed="19.33" duration="77.00" routeLength="995.07" waitingTime="12.00" waitingCount="1" stopTime="0.00" timeLoss="24.85" rerouteNo="0" devices="tripinfo_SN.4 routing_SN.4" vType="car" speedFactor="0.96" vaporized=""/>
    <tripinfo id="SW.cv.1" depart="53.00" departLane="-E3_3" departPos="5.10" departSpeed="21.70" departDelay="0.00" arrival="125.00" arrivalLane="-E0_0" arrivalPos="500.03" arrivalSpeed="16.87" duration="72.00" routeLength="996.18" waitingTime="6.00" waitingCount="1" stopTime="0.00" timeLoss="19.12" rerouteNo="0" devices="tripinfo_SW.cv.1 routing_SW.cv.1" vType="cv" speedFactor="1.08" vaporized=""/>
    <tripinfo id="NS.cv.8" depart="39.00" departLane="E1_2" departPos="5.10" departSpeed="23.34" departDelay="0.00" arrival="127.00" arrivalLane="E3_0" arrivalPos="501.31" arrivalSpeed="23.34" duration="88.00" routeLength="994.98" waitingTime="31.00" waitingCount="1" stopTime="0.00" timeLoss="44.44" rerouteNo="0" devices="tripinfo_NS.cv.8 routing_NS.cv.8" vType="cv" speedFactor="1.16" vaporized=""/>
    <tripinfo id="NW.cv.3" depart="63.00" departLane="E1_0" departPos="5.10" departSpeed="20.01" departDelay="0.00" arrival="127.00" arrivalLane="-E0_1" arrivalPos="500.03" arrivalSpeed="15.52" duration="64.00" routeLength="993.70" waitingTime="0.00" waitingCount="0" stopTime="0.00" timeLoss="6.93" rerouteNo="0" devices="tripinfo_NW.cv.3 routing_NW.cv.3" vType="cv" speedFactor="0.99" vaporized=""/>
    <tripinfo id="NS.cv.7" depart="35.00" departLane="E1_1" departPos="5.10" departSpeed="18.73" departDelay="0.00" arrival="131.00" arrivalLane="E3_0" arrivalPos="501.31" arrivalSpeed="18.72" duration="96.00" routeLength="994.98" waitingTime="31.00" waitingCount="1" stopTime="0.00" timeLoss="42.53" rerouteNo="0" devices="tripinfo_NS.cv.7 routing_NS.cv.7" vType="cv" speedFactor="0.93" vaporized=""/>
    <tripinfo id="NS.0" depart="40.00" departLane="E1_1" departPos="5.10" departSpeed="20.67" departDelay="0.00" arrival="131.00" arrivalLane="E3_1" arrivalPos="501.31" arrivalSpeed="20.67" duration="91.00" routeLength="994.98" waitingTime="29.00" waitingCount="1" stopTime="0.00" timeLoss="42.45" rerouteNo="0" devices="tripinfo_NS.0 routing_NS.0" vType="car" speedFactor="1.03" vaporized=""/>
    <tripinfo id="NS.cv.10" depart="47.00" departLane="E1_1" departPos="5.10" departSpeed="20.88" departDelay="0.00" arrival="133.00" arrivalLane="E3_0" arrivalPos="501.31" arrivalSpeed="20.01" duration="86.00" routeLength="994.98" waitingTime="22.00" waitingCount="1" stopTime="0.00" timeLoss="38.07" rerouteNo="0" devices="tripinfo_NS.cv.10 routing_NS.cv.10" vType="cv" speedFactor="1.04" vaporized=""/>
    <tripinfo id="NS.cv.9" depart="46.00" departLane="E1_2" departPos="5.10" departSpeed="20.17" departDelay="0.00" arrival="134.00" arrivalLane="E3_1" arrivalPos="501.31" arrivalSpeed="20.06" duration="88.00" routeLength="994.98" waitingTime="24.00" waitingCount="1" stopTime="0.00" timeLoss="38.57" rerouteNo="0" devices="tripinfo_NS.cv.9 routing_NS.cv.9" vType="cv" speedFactor="1.00" vaporized=""/>
    <tripinfo id="NS.cv.11" depart="50.00" departLane="E1_2" departPos="5.10" departSpeed="21.00" departDelay="0.00" arrival="137.00" arrivalLane="E3_1" arrivalPos="501.31" arrivalSpeed="20.65" duration="87.00" routeLength="994.98" waitingTime="22.00" waitingCount="1" stopTime="0.00" timeLoss="38.82" rerouteNo="0" devices="tripinfo_NS.cv.11 routing_NS.cv.11" vType="cv" speedFactor="1.04" vaporized=""/>
    <tripinfo id="NS.cv.12" depart="54.00" departLane="E1_2" departPos="5.10" departSpeed="16.87" departDelay="0.00" arrival="138.00" arrivalLane="E3_0" arrivalPos="501.31" arrivalSpeed="16.87" duration="84.00" routeLength="994.98" waitingTime="12.00" waitingCount="1" stopTime="0.00" timeLoss="24.76" rerouteNo="0" devices="tripinfo_NS.cv.12 routing_NS.cv.12" vType="cv" speedFactor="0.84" vaporized=""/>
    <tripinfo id="NS.cv.13" depart="57.00" departLane="E1_1" departPos="5.10" departSpeed="20.85" departDelay="0.00" arrival="139.00" arrivalLane="E3_1" arrivalPos="501.31" arrivalSpeed="20.29" duration="82.00" routeLength="994.98" waitingTime="13.00" waitingCount="1" stopTime="0.00" timeLoss="33.76" rerouteNo="0" devices="tripinfo_NS.cv.13 routing_NS.cv.13" vType="cv" speedFactor="1.04" vaporized=""/>
    <tripinfo id="NS.1" depart="54.00" departLane="E1_1" departPos="5.10" departSpeed="19.17" departDelay="0.00" arrival="140.00" arrivalLane="E3_0" arrivalPos="501.31" arrivalSpeed="18.29" duration="86.00" routeLength="994.98" waitingTime="11.00" waitingCount="1" stopTime="0.00" timeLoss="33.80" rerouteNo="0" devices="tripinfo_NS.1 routing_NS.1" vType="car" speedFactor="0.95" vaporized=""/>
    <tripinfo id="NS.cv.15" depart="68.00" departLane="E1_2" departPos="5.10" departSpeed="19.00" departDelay="0.00" arrival="142.00" arrivalLane="E3_1" arrivalPos="501.31" arrivalSpeed="18.89" duration="74.00" routeLength="994.98" waitingTime="5.00" waitingCount="1" stopTime="0.00" timeLoss="21.16" rerouteNo="0" devices="tripinfo_NS.cv.15 routing_NS.cv.15" vType="cv" speedFactor="0.94" vaporized=""/>
    <tripinfo id="NS.cv.14" depart="66.00" departLane="E1_1" departPos="5.10" departSpeed="17.51" departDelay="0.00" arrival="143.00" arrivalLane="E3_0" arrivalPos="501.31" arrivalSpeed="17.36" duration="77.00" routeLength="994.98" waitingTime="4.00" waitingCount="1" stopTime="0.00" timeLoss="19.55" rerouteNo="0" devices="tripinfo_NS.cv.14 routing_NS.cv.14" vType="cv" speedFactor="0.87" vaporized=""/>
    <tripinfo id="NS.2" depart="73.00" departLane="E1_1" departPos="5.10" departSpeed="17.86" departDelay="0.00" arrival="145.00" arrivalLane="E3_0" arrivalPos="501.31" arrivalSpeed="17.42" duration="72.00" routeLength="994.98" waitingTime="0.00" waitingCount="0" stopTime="0.00" timeLoss="15.99" rerouteNo="0" devices="tripinfo_NS.2 routing_NS.2" vType="car" speedFactor="0.89" vaporized=""/>
    <tripinfo id="NS.3" depart="76.00" departLane="E1_2" departPos="5.10" departSpeed="18.42" departDelay="0.00" arrival="145.00" arrivalLane="E3_1" arrivalPos="501.31" arrivalSpeed="18.29" duration="69.00" routeLength="994.98" waitingTime="0.00" waitingCount="0" stopTime="0.00" timeLoss="14.41" rerouteNo="0" devices="tripinfo_NS.3 routing_NS.3" vType="car" speedFactor="0.92" vaporized=""/>
    <tripinfo id="NS.4" depart="82.00" departLane="E1_1" departPos="5.10" departSpeed="18.35" departDelay="0.00" arrival="147.00" arrivalLane="E3_0" arrivalPos="501.31" arrivalSpeed="17.77" duration="65.00" routeLength="994.98" waitingTime="0.00" waitingCount="0" stopTime="0.00" timeLoss="10.69" rerouteNo="0" devices="tripinfo_NS.4 routing_NS.4" vType="car" speedFactor="0.91" vaporized=""/>
    <tripinfo id="ES.cv.2" depart="92.00" departLane="-E2_3" departPos="5.10" departSpeed="16.14" departDelay="0.00" arrival="150.00" arrivalLane="E3_1" arrivalPos="501.31" arrivalSpeed="20.71" duration="58.00" routeLength="1002.88" waitingTime="0.00" waitingCount="0" stopTime="0.00" timeLoss="2.82" rerouteNo="0" devices="tripinfo_ES.cv.2 routing_ES.cv.2" vType="cv" speedFactor="1.03" vaporized=""/>
    <tripinfo id="WN.0" depart="46.00" departLane="E0_2" departPos="5.10" departSpeed="15.90" departDelay="0.00" arrival="152.00" arrivalLane="-E1_0" arrivalPos="498.92" arrivalSpeed="20.44" duration="106.00" routeLength="993.15" waitingTime="38.00" waitingCount="1" stopTime="0.00" timeLoss="49.90" rerouteNo="0" devices="tripinfo_WN.0 routing_WN.0" vType="car" speedFactor="1.02" vaporized=""/>
    <tripinfo id="ES.1" depart="54.00" departLane="-E2_3" departPos="5.10" departSpeed="16.85" departDelay="0.00" arrival="152.00" arrivalLane="E3_1" arrivalPos="501.31" arrivalSpeed="20.78" duration="98.00" routeLength="1002.88" waitingTime="31.00" waitingCount="1" stopTime="0.00" timeLoss="44.96" rerouteNo="0" devices="tripinfo_ES.1 routing_ES.1" vType="car" speedFactor="1.08" vaporized=""/>
    <tripinfo id="WN.cv.0" depart="76.00" departLane="E0_3" departPos="5.10" departSpeed="15.66" departDelay="0.00" arrival="152.00" arrivalLane="-E1_1" arrivalPos="498.92" arrivalSpeed="20.13" duration="76.00" routeLength="993.15" waitingTime="8.00" waitingCount="1" stopTime="0.00" timeLoss="19.36" rerouteNo="0" devices="tripinfo_WN.cv.0 routing_WN.cv.0" vType="cv" speedFactor="1.00" vaporized=""/>
    <tripinfo id="WN.1" depart="81.00" departLane="E0_2" departPos="5.10" departSpeed="16.60" departDelay="0.00" arrival="154.00" arrivalLane="-E1_0" arrivalPos="498.92" arrivalSpeed="20.88" duration="73.00" routeLength="993.15" waitingTime="6.00" waitingCount="1" stopTime="0.00" timeLoss="19.86" rerouteNo="0" devices="tripinfo_WN.1 routing_WN.1" vType="car" speedFactor="1.06" vaporized=""/>
    <tripinfo id="ES.2" depart="94.00" departLane="-E2_2" departPos="5.10" departSpeed="14.74" departDelay="0.00" arrival="157.00" arrivalLane="E3_0" arrivalPos="501.31" arrivalSpeed="18.95" duration="63.00" routeLength="1002.88" waitingTime="0.00" waitingCount="0" stopTime="0.00" timeLoss="1.90" rerouteNo="0" devices="tripinfo_ES.2 routing_ES.2" vType="car" speedFactor="0.94" vaporized=""/>
    <tripinfo id="SE.cv.1" depart="95.00" departLane="-E3_0" departPos="5.10" departSpeed="19.69" departDelay="0.00" arrival="160.00" arrivalLane="E2_0" arrivalPos="508.36" arrivalSpeed="15.31" duration="65.00" routeLength="1004.51" waitingTime="0.00" waitingCount="0" stopTime="0.00" timeLoss="5.75" rerouteNo="0" devices="tripinfo_SE.cv.1 routing_SE.cv.1" vType="cv" speedFactor="0.98" vaporized=""/>
    <tripinfo id="WS.cv.3" depart="74.00" departLane="E0_0" departPos="5.10" departSpeed="17.29" departDelay="0.00" arrival="163.00" arrivalLane="E3_1" arrivalPos="501.31" arrivalSpeed="22.23" duration="89.00" routeLength="995.54" waitingTime="24.00" waitingCount="1" stopTime="0.00" timeLoss="37.00" rerouteNo="0" devices="tripinfo_WS.cv.3 routing_WS.cv.3" vType="cv" speedFactor="1.10" vaporized=""/>
    <tripinfo id="WS.0" depart="75.00" departLane="E0_0" departPos="5.10" departSpeed="13.60" departDelay="0.00" arrival="168.00" arrivalLane="E3_0" arrivalPos="501.31" arrivalSpeed="19.48" duration="93.00" routeLength="995.54" waitingTime="20.00" waitingCount="1" stopTime="0.00" timeLoss="34.31" rerouteNo="0" devices="tripinfo_WS.0 routing_WS.0" vType="car" speedFactor="0.97" vaporized=""/>
    <tripinfo id="EN.cv.0" depart="76.00" departLane="-E2_0" departPos="5.10" departSpeed="13.65" departDelay="0.00" arrival="168.00" arrivalLane="-E1_0" arrivalPos="498.92" arrivalSpeed="17.55" duration="92.00" routeLength="1000.49" waitingTime="16.00" waitingCount="1" stopTime="0.00" timeLoss="26.88" rerouteNo="0" devices="tripinfo_EN.cv.0 routing_EN.cv.0" vType="cv" speedFactor="0.87" vaporized=""/>
    <tripinfo id="WS.cv.4" depart="81.00" departLane="E0_0" departPos="5.10" departSpeed="18.15" departDelay="0.00" arrival="168.00" arrivalLane="E3_1" arrivalPos="501.31" arrivalSpeed="23.30" duration="87.00" routeLength="995.54" waitingTime="20.00" waitingCount="1" stopTime="0.00" timeLoss="37.75" rerouteNo="0" devices="tripinfo_WS.cv.4 routing_WS.cv.4" vType="cv" speedFactor="1.16" vaporized=""/>