<?xml version="1.0" encoding="UTF-8"?>

<!-- generated on 2023-01-30 11:59:48 by Eclipse SUMO sumo Version 1.13.0
<configuration xmlns:xsi="http://www.w3.org/2001/XMLSchema-instance" xsi:noNamespaceSchemaLocation="http://sumo.dlr.de/xsd/sumoConfiguration.xsd">

    <input>
        <net-file value="data/Eastway-Central.net.xml"/>
        <route-files value="data/cav60-offpeak.rou.xml"/>
        <additional-files value="data/Eastway-Central.add.xml"/>
    </input>

    <output>
        <tripinfo-output value="result\2023-01-30-11-54-29\34_tripinfo.xml"/>
    </output>

    <report>
        <no-warnings value="true"/>
        <no-step-log value="true"/>
    </report>

    <traci_server>
        <remote-port value="53799"/>
    </traci_server>

    <random_number>
        <seed value="33"/>
    </random_number>

</configuration>
-->

<tripinfos xmlns:xsi="http://www.w3.org/2001/XMLSchema-instance" xsi:noNamespaceSchemaLocation="http://sumo.dlr.de/xsd/tripinfo_file.xsd">
    <tripinfo id="BNS.0" depart="0.00" departLane="E1_1" departPos="12.10" departSpeed="20.12" departDelay="0.00" arrival="50.00" arrivalLane="E3_0" arrivalPos="501.31" arrivalSpeed="20.12" duration="50.00" routeLength="987.98" waitingTime="0.00" waitingCount="0" stopTime="0.00" timeLoss="0.19" rerouteNo="0" devices="tripinfo_BNS.0 routing_BNS.0" vType="bus" speedFactor="1.00" vaporized=""/>
    <tripinfo id="SN.0" depart="3.00" departLane="-E3_1" departPos="5.10" departSpeed="19.80" departDelay="0.00" arrival="54.00" arrivalLane="-E1_0" arrivalPos="498.92" arrivalSpeed="19.80" duration="51.00" routeLength="995.07" waitingTime="0.00" waitingCount="0" stopTime="0.00" timeLoss="0.05" rerouteNo="0" devices="tripinfo_SN.0 routing_SN.0" vType="car" speedFactor="0.98" vaporized=""/>
    <tripinfo id="NS.cv.0" depart="1.00" departLane="E1_2" departPos="5.10" departSpeed="17.94" departDelay="0.00" arrival="57.00" arrivalLane="E3_1" arrivalPos="501.31" arrivalSpeed="17.94" duration="56.00" routeLength="994.98" waitingTime="0.00" waitingCount="0" stopTime="0.00" timeLoss="0.05" rerouteNo="0" devices="tripinfo_NS.cv.0 routing_NS.cv.0" vType="cv" speedFactor="0.89" vaporized=""/>
    <tripinfo id="NS.cv.1" depart="2.00" departLane="E1_1" departPos="5.10" departSpeed="18.96" departDelay="0.00" arrival="58.00" arrivalLane="E3_0" arrivalPos="501.31" arrivalSpeed="18.37" duration="56.00" routeLength="994.98" waitingTime="0.00" waitingCount="0" stopTime="0.00" timeLoss="3.01" rerouteNo="0" devices="tripinfo_NS.cv.1 routing_NS.cv.1" vType="cv" speedFactor="0.94" vaporized=""/>
    <tripinfo id="SN.cv.0" depart="11.00" departLane="-E3_2" departPos="5.10" departSpeed="20.01" departDelay="0.00" arrival="61.00" arrivalLane="-E1_0" arrivalPos="498.92" arrivalSpeed="20.00" duration="50.00" routeLength="995.07" waitingTime="0.00" waitingCount="0" stopTime="0.00" timeLoss="0.17" rerouteNo="0" devices="tripinfo_SN.cv.0 routing_SN.cv.0" vType="cv" speedFactor="0.99" vaporized=""/>
    <tripinfo id="WN.cv.0" depart="5.00" departLane="E0_2" departPos="5.10" departSpeed="16.51" departDelay="0.00" arrival="71.00" arrivalLane="-E1_0" arrivalPos="498.92" arrivalSpeed="21.23" duration="66.00" routeLength="993.15" waitingTime="0.00" waitingCount="0" stopTime="0.00" timeLoss="12.23" rerouteNo="0" devices="tripinfo_WN.cv.0 routing_WN.cv.0" vType="cv" speedFactor="1.06" vaporized=""/>
    <tripinfo id="NW.cv.0" depart="6.00" departLane="E1_0" departPos="5.10" departSpeed="17.72" departDelay="0.00" arrival="75.00" arrivalLane="-E0_0" arrivalPos="500.03" arrivalSpeed="13.78" duration="69.00" routeLength="993.70" waitingTime="0.00" waitingCount="0" stopTime="0.00" timeLoss="4.77" rerouteNo="0" devices="tripinfo_NW.cv.0 routing_NW.cv.0" vType="cv" speedFactor="0.88" vaporized=""/>
    <tripinfo id="NW.cv.1" depart="14.00" departLane="E1_0" departPos="5.10" departSpeed="19.92" departDelay="0.00" arrival="78.00" arrivalLane="-E0_0" arrivalPos="500.03" arrivalSpeed="15.39" duration="64.00" routeLength="993.70" waitingTime="0.00" waitingCount="0" stopTime="0.00" timeLoss="6.87" rerouteNo="0" devices="tripinfo_NW.cv.1 routing_NW.cv.1" vType="cv" speedFactor="0.99" vaporized=""/>
    <tripinfo id="EW.cv.1" depart="26.00" departLane="-E2_1" departPos="5.10" departSpeed="16.81" departDelay="0.00" arrival="87.00" arrivalLane="-E0_0" arrivalPos="500.03" arrivalSpeed="16.81" duration="61.00" routeLength="1001.60" waitingTime="0.00" waitingCount="0" stopTime="0.00" timeLoss="0.99" rerouteNo="0" devices="tripinfo_EW.cv.1 routing_EW.cv.1" vType="cv" speedFactor="1.07" vaporized=""/>
    <tripinfo id="WE.0" depart="17.00" departLane="E0_0" departPos="5.10" departSpeed="14.37" departDelay="0.00" arrival="88.00" arrivalLane="E2_0" arrivalPos="508.36" arrivalSpeed="14.37" duration="71.00" routeLength="1002.59" waitingTime="0.00" waitingCount="0" stopTime="0.00" timeLoss="0.23" rerouteNo="0" devices="tripinfo_WE.0 routing_WE.0" vType="car" speedFactor="0.92" vaporized=""/>
    <tripinfo id="WE.1" depart="27.00" departLane="E0_1" departPos="5.10" departSpeed="16.74" departDelay="0.00" arrival="88.00" arrivalLane="E2_1" arrivalPos="508.36" arrivalSpeed="16.74" duration="61.00" routeLength="1002.59" waitingTime="0.00" waitingCount="0" stopTime="0.00" timeLoss="0.72" rerouteNo="0" devices="tripinfo_WE.1 routing_WE.1" vType="car" speedFactor="1.07" vaporized=""/>
    <tripinfo id="EW.0" depart="5.00" departLane="-E2_0" departPos="5.10" departSpeed="15.16" departDelay="0.00" arrival="90.00" arrivalLane="-E0_0" arrivalPos="500.03" arrivalSpeed="15.09" duration="85.00" routeLength="1001.60" waitingTime="7.00" waitingCount="1" stopTime="0.00" timeLoss="18.09" rerouteNo="0" devices="tripinfo_EW.0 routing_EW.0" vType="car" speedFactor="0.97" vaporized=""/>
    <tripinfo id="EW.cv.0" depart="22.00" departLane="-E2_1" departPos="5.10" departSpeed="15.61" departDelay="0.00" arrival="92.00" arrivalLane="-E0_1" arrivalPos="500.03" arrivalSpeed="15.61" duration="70.00" routeLength="1001.60" waitingTime="0.00" waitingCount="0" stopTime="0.00" timeLoss="5.01" rerouteNo="0" devices="tripinfo_EW.cv.0 routing_EW.cv.0" vType="cv" speedFactor="1.00" vaporized=""/>
    <tripinfo id="EW.cv.2" depart="36.00" departLane="-E2_1" departPos="5.10" departSpeed="17.42" departDelay="0.00" arrival="95.00" arrivalLane="-E0_0" arrivalPos="500.03" arrivalSpeed="17.41" duration="59.00" routeLength="1001.60" waitingTime="0.00" waitingCount="0" stopTime="0.00" timeLoss="0.77" rerouteNo="0" devices="tripinfo_EW.cv.2 routing_EW.cv.2" vType="cv" speedFactor="1.11" vaporized=""/>
    <tripinfo id="EW.1" depart="24.00" departLane="-E2_0" departPos="5.10" departSpeed="13.73" departDelay="0.00" arrival="99.00" arrivalLane="-E0_0" arrivalPos="500.03" arrivalSpeed="13.73" duration="75.00" routeLength="1001.60" waitingTime="0.00" waitingCount="0" stopTime="0.00" timeLoss="1.43" rerouteNo="0" devices="tripinfo_EW.1 routing_EW.1" vType="car" speedFactor="0.88" vaporized=""/>
    <tripinfo id="SN.1" depart="19.00" departLane="-E3_1" departPos="5.10" departSpeed="18.73" departDelay="0.00" arrival="103.00" arrivalLane="-E1_0" arrivalPos="498.92" arrivalSpeed="18.73" duration="84.00" routeLength="995.07" waitingTime="19.00" waitingCount="1" stopTime="0.00" timeLoss="30.11" rerouteNo="0" devices="tripinfo_SN.1 routing_SN.1" vType="car" speedFactor="0.93" vaporized=""/>
    <tripinfo id="SN.cv.1" depart="27.00" departLane="-E3_2" departPos="5.10" departSpeed="18.78" departDelay="0.00" arrival="103.00" arrivalLane="-E1_1" arrivalPos="498.92" arrivalSpeed="18.78" duration="76.00" routeLength="995.07" waitingTime="10.00" waitingCount="1" stopTime="0.00" timeLoss="22.20" rerouteNo="0" devices="tripinfo_SN.cv.1 routing_SN.cv.1" vType="cv" speedFactor="0.93" vaporized=""/>
    <tripinfo id="SN.cv.2" depart="38.00" departLane="-E3_1" departPos="5.10" departSpeed="20.69" departDelay="0.00" arrival="105.00" arrivalLane="-E1_1" arrivalPos="498.92" arrivalSpeed="19.96" duration="67.00" routeLength="995.07" waitingTime="3.00" waitingCount="1" stopTime="0.00" timeLoss="18.30" rerouteNo="0" devices="tripinfo_SN.cv.2 routing_SN.cv.2" vType="cv" speedFactor="1.03" vaporized=""/>
    <tripinfo id="SN.cv.3" depart="47.00" departLane="-E3_2" departPos="5.10" departSpeed="20.54" departDelay="0.00" arrival="106.00" arrivalLane="-E1_0" arrivalPos="498.92" arrivalSpeed="19.88" duration="59.00" routeLength="995.07" waitingTime="0.00" waitingCount="0" stopTime="0.00" timeLoss="9.82" rerouteNo="0" devices="tripinfo_SN.cv.3 routing_SN.cv.3" vType="cv" speedFactor="1.02" vaporized=""/>
    <tripinfo id="SW.0" depart="25.00" departLane="-E3_3" departPos="5.10" departSpeed="19.75" departDelay="0.00" arrival="108.00" arrivalLane="-E0_0" arrivalPos="500.03" arrivalSpeed="15.36" duration="83.00" routeLength="996.18" waitingTime="13.00" waitingCount="1" stopTime="0.00" timeLoss="24.84" rerouteNo="0" devices="tripinfo_SW.0 routing_SW.0" vType="car" speedFactor="0.98" vaporized=""/>
    <tripinfo id="SN.cv.4" depart="48.00" departLane="-E3_1" departPos="5.10" departSpeed="19.47" departDelay="0.00" arrival="108.00" arrivalLane="-E1_1" arrivalPos="498.92" arrivalSpeed="19.29" duration="60.00" routeLength="995.07" waitingTime="0.00" waitingCount="0" stopTime="0.00" timeLoss="8.04" rerouteNo="0" devices="tripinfo_SN.cv.4 routing_SN.cv.4" vType="cv" speedFactor="0.97" vaporized=""/>
    <tripinfo id="SN.2" depart="56.00" departLane="-E3_2" departPos="5.10" departSpeed="23.22" departDelay="0.00" arrival="109.00" arrivalLane="-E1_1" arrivalPos="498.92" arrivalSpeed="20.16" duration="53.00" routeLength="995.07" waitingTime="0.00" waitingCount="0" stopTime="0.00" timeLoss="10.02" rerouteNo="0" devices="tripinfo_SN.2 routing_SN.2" vType="car" speedFactor="1.15" vaporized=""/>
    <tripinfo id="NS.cv.3" depart="34.00" departLane="E1_2" departPos="5.10" departSpeed="22.18" departDelay="0.00" arrival="110.00" arrivalLane="E3_0" arrivalPos="501.31" arrivalSpeed="22.18" duration="76.00" routeLength="994.98" waitingTime="18.00" waitingCount="1" stopTime="0.00" timeLoss="31.09" rerouteNo="0" devices="tripinfo_NS.cv.3 routing_NS.cv.3" vType="cv" speedFactor="1.10" vaporized=""/>
    <tripinfo id="SW.cv.0" depart="42.00" departLane="-E3_3" departPos="5.10" departSpeed="20.38" departDelay="0.00" arrival="110.00" arrivalLane="-E0_1" arrivalPos="500.03" arrivalSpeed="15.80" duration="68.00" routeLength="996.18" waitingTime="0.00" waitingCount="0" stopTime="0.00" timeLoss="11.58" rerouteNo="0" devices="tripinfo_SW.cv.0 routing_SW.cv.0" vType="cv" speedFactor="1.01" vaporized=""/>
    <tripinfo id="NS.0" depart="18.00" departLane="E1_2" departPos="5.10" departSpeed="19.53" departDelay="0.00" arrival="113.00" arrivalLane="E3_0" arrivalPos="501.31" arrivalSpeed="19.45" duration="95.00" routeLength="994.98" waitingTime="32.00" waitingCount="1" stopTime="0.00" timeLoss="44.00" rerouteNo="0" devices="tripinfo_NS.0 routing_NS.0" vType="car" speedFactor="0.97" vaporized=""/>
    <tripinfo id="NS.cv.5" depart="44.00" departLane="E1_2" departPos="5.10" departSpeed="19.53" departDelay="0.00" arrival="115.00" arrivalLane="E3_1" arrivalPos="501.31" arrivalSpeed="19.53" duration="71.00" routeLength="994.98" waitingTime="7.00" waitingCount="1" stopTime="0.00" timeLoss="19.90" rerouteNo="0" devices="tripinfo_NS.cv.5 routing_NS.cv.5" vType="cv" speedFactor="0.97" vaporized=""/>
    <tripinfo id="SN.cv.5" depart="61.00" departLane="-E3_1" departPos="5.10" departSpeed="18.61" departDelay="0.00" arrival="115.00" arrivalLane="-E1_0" arrivalPos="498.92" arrivalSpeed="18.61" duration="54.00" routeLength="995.07" waitingTime="0.00" waitingCount="0" stopTime="0.00" timeLoss="0.53" rerouteNo="0" devices="tripinfo_SN.cv.5 routing_SN.cv.5" vType="cv" speedFactor="0.93" vaporized=""/>
    <tripinfo id="NS.cv.2" depart="31.00" departLane="E1_1" departPos="5.10" departSpeed="17.35" departDelay="0.00" arrival="118.00" arrivalLane="E3_0" arrivalPos="501.31" arrivalSpeed="17.34" duration="87.00" routeLength="994.98" waitingTime="17.00" waitingCount="1" stopTime="0.00" timeLoss="29.50" rerouteNo="0" devices="tripinfo_NS.cv.2 routing_NS.cv.2" vType="cv" speedFactor="0.86" vaporized=""/>
    <tripinfo id="NS.1" depart="45.00" departLane="E1_1" departPos="5.10" departSpeed="19.26" departDelay="0.00" arrival="119.00" arrivalLane="E3_1" arrivalPos="501.31" arrivalSpeed="19.20" duration="74.00" routeLength="994.98" waitingTime="6.00" waitingCount="1" stopTime="0.00" timeLoss="21.40" rerouteNo="0" devices="tripinfo_NS.1 routing_NS.1" vType="car" speedFactor="0.96" vaporized=""/>
    <tripinfo id="NS.cv.6" depart="65.00" departLane="E1_2" departPos="5.10" departSpeed="20.12" departDelay="0.00" arrival="121.00" arrivalLane="E3_1" arrivalPos="501.31" arrivalSpeed="19.57" duration="56.00" routeLength="994.98" waitingTime="0.00" waitingCount="0" stopTime="0.00" timeLoss="5.92" rerouteNo="0" devices="tripinfo_NS.cv.6 routing_NS.cv.6" vType="cv" speedFactor="1.00" vaporized=""/>
    <tripinfo id="NW.cv.2" depart="58.00" departLane="E1_0" departPos="5.10" departSpeed="19.61" departDelay="0.00" arrival="122.00" arrivalLane="-E0_0" arrivalPos="500.03" arrivalSpeed="15.25" duration="64.00" routeLength="993.70" waitingTime="0.00" waitingCount="0" stopTime="0.00" timeLoss="5.81" rerouteNo="0" devices="tripinfo_NW.cv.2 routing_NW.cv.2" vType="cv" speedFactor="0.97" vaporized=""/>
    <tripinfo id="NS.cv.4" depart="40.00" departLane="E1_1" departPos="5.10" departSpeed="15.99" departDelay="0.00" arrival="123.00" arrivalLane="E3_0" arrivalPos="501.31" arrivalSpeed="15.98" duration="83.00" routeLength="994.98" waitingTime="7.00" waitingCount="1" stopTime="0.00" timeLoss="20.22" rerouteNo="0" devices="tripinfo_NS.cv.4 routing_NS.cv.4" vType="cv" speedFactor="0.79" vaporized=""/>
    <tripinfo id="NS.2" depart="66.00" departLane="E1_1" departPos="5.10" departSpeed="19.53" departDelay="0.00" arrival="123.00" arrivalLane="E3_1" arrivalPos="501.31" arrivalSpeed="19.09" duration="57.00" routeLength="994.98" waitingTime="0.00" waitingCount="0" stopTime="0.00" timeLoss="5.83" rerouteNo="0" devices="tripinfo_NS.2 routing_NS.2" vType="car" speedFactor="0.97" vaporized=""/>
    <tripinfo id="NW.cv.3" depart="62.00" departLane="E1_0" departPos="5.10" departSpeed="21.01" departDelay="0.00" arrival="125.00" arrivalLane="-E0_0" arrivalPos="500.03" arrivalSpeed="16.18" duration="63.00" routeLength="993.70" waitingTime="0.00" waitingCount="0" stopTime="0.00" timeLoss="8.11" rerouteNo="0" devices="tripinfo_NW.cv.3 routing_NW.cv.3" vType="cv" speedFactor="1.04" vaporized=""/>
    <tripinfo id="NS.3" depart="68.00" departLane="E1_2" departPos="5.10" departSpeed="17.82" departDelay="0.00" arrival="126.00" arrivalLane="E3_1" arrivalPos="501.31" arrivalSpeed="17.72" duration="58.00" routeLength="994.98" waitingTime="0.00" waitingCount="0" stopTime="0.00" timeLoss="1.96" rerouteNo="0" devices="tripinfo_NS.3 routing_NS.3" vType="car" speedFactor="0.89" vaporized=""/>
    <tripinfo id="SE.cv.0" depart="64.00" departLane="-E3_0" departPos="5.10" departSpeed="21.09" departDelay="0.00" arrival="127.00" arrivalLane="E2_0" arrivalPos="508.36" arrivalSpeed="16.41" duration="63.00" routeLength="1004.51" waitingTime="0.00" waitingCount="0" stopTime="0.00" timeLoss="7.88" rerouteNo="0" devices="tripinfo_SE.cv.0 routing_SE.cv.0" vType="cv" speedFactor="1.05" vaporized=""/>
    <tripinfo id="ES.cv.0" depart="68.00" departLane="-E2_3" departPos="5.10" departSpeed="15.54" departDelay="0.00" arrival="129.00" arrivalLane="E3_1" arrivalPos="501.31" arrivalSpeed="19.70" duration="61.00" routeLength="1002.88" waitingTime="0.00" waitingCount="0" stopTime="0.00" timeLoss="3.31" rerouteNo="0" devices="tripinfo_ES.cv.0 routing_ES.cv.0" vType="cv" speedFactor="0.99" vaporized=""/>
    <tripinfo id="ES.0" depart="28.00" departLane="-E2_2" departPos="5.10" departSpeed="13.94" departDelay="0.00" arrival="132.00" arrivalLane="E3_0" arrivalPos="501.31" arrivalSpeed="17.92" duration="104.00" routeLength="1002.88" waitingTime="29.00" waitingCount="1" stopTime="0.00" timeLoss="39.82" rerouteNo="0" devices="tripinfo_ES.0 routing_ES.0" vType="car" speedFactor="0.89" vaporized=""/>
    <tripinfo id="SE.cv.1" depart="71.00" departLane="-E3_0" departPos="5.10" departSpeed="23.55" departDelay="0.00" arrival="132.00" arrivalLane="E2_1" arrivalPos="508.36" arrivalSpeed="18.32" duration="61.00" routeLength="1004.51" waitingTime="0.00" waitingCount="0" stopTime="0.00" timeLoss="11.32" rerouteNo="0" devices="tripinfo_SE.cv.1 routing_SE.cv.1" vType="cv" speedFactor="1.17" vaporized=""/>
    <tripinfo id="EN.cv.0" depart="46.00" departLane="-E2_0" departPos="5.10" departSpeed="14.32" departDelay="0.00" arrival="133.00" arrivalLane="-E1_0" arrivalPos="498.92" arrivalSpeed="18.41" duration="87.00" routeLength="1000.49" waitingTime="13.00" waitingCount="1" stopTime="0.00" timeLoss="24.76" rerouteNo="0" devices="tripinfo_EN.cv.0 routing_EN.cv.0" vType="cv" speedFactor="0.92" vaporized=""/>
    <tripinfo id="EW.cv.3" depart="41.00" departLane="-E2_0" departPos="5.10" departSpeed="15.45" departDelay="0.00" arrival="136.00" arrivalLane="-E0_0" arrivalPos="500.03" arrivalSpeed="15.45" duration="95.00" routeLength="1001.60" waitingTime="19.00" waitingCount="1" stopTime="0.00" timeLoss="29.47" rerouteNo="0" devices="tripinfo_EW.cv.3 routing_EW.cv.3" vType="cv" speedFactor="0.99" vaporized=""/>
    <tripinfo id="WS.cv.0" depart="79.00" departLane="E0_0" departPos="5.10" departSpeed="17.56" departDelay="0.00" arrival="137.00" arrivalLane="E3_1" arrivalPos="501.31" arrivalSpeed="22.57" duration="58.00" routeLength="995.54" waitingTime="0.00" waitingCount="0" stopTime="0.00" timeLoss="7.66" rerouteNo="0" devices="tripinfo_WS.cv.0 routing_WS.cv.0" vType="cv" speedFactor="1.12" vaporized=""/>
    <tripinfo id="EW.2" depart="42.00" departLane="-E2_1" departPos="5.10" departSpeed="14.36" departDelay="0.00" arrival="138.00" arrivalLane="-E0_1" arrivalPos="500.03" arrivalSpeed="14.36" duration="96.00" routeLength="1001.60" waitingTime="15.00" waitingCount="1" stopTime="0.00" timeLoss="25.76" rerouteNo="0" devices="tripinfo_EW.2 routing_EW.2" vType="car" speedFactor="0.92" vaporized=""/>
    <tripinfo id="EW.3" depart="52.00" departLane="-E2_0" departPos="5.10" departSpeed="16.34" departDelay="0.00" arrival="139.00" arrivalLane="-E0_0" arrivalPos="500.03" arrivalSpeed="16.26" duration="87.00" routeLength="1001.60" waitingTime="12.00" waitingCount="1" stopTime="0.00" timeLoss="25.39" rerouteNo="0" devices="tripinfo_EW.3 routing_EW.3" vType="car" speedFactor="1.04" vaporized=""/>
    <tripinfo id="EW.cv.4" depart="51.00" departLane="-E2_1" departPos="5.10" departSpeed="15.54" departDelay="0.00" arrival="140.00" arrivalLane="-E0_0" arrivalPos="500.03" arrivalSpeed="15.22" duration="89.00" routeLength="1001.60" waitingTime="11.00" waitingCount="1" stopTime="0.00" timeLoss="24.50" rerouteNo="0" devices="tripinfo_EW.cv.4 routing_EW.cv.4" vType="cv" speedFactor="0.99" vaporized=""/>
    <tripinfo id="EW.4" depart="74.00" departLane="-E2_1" departPos="5.10" departSpeed="15.25" departDelay="0.00" arrival="143.00" arrivalLane="-E0_0" arrivalPos="500.03" arrivalSpeed="15.17" duration="69.00" routeLength="1001.60" waitingTime="0.00" waitingCount="0" stopTime="0.00" timeLoss="2.87" rerouteNo="0" devices="tripinfo_EW.4 routing_EW.4" vType="car" speedFactor="0.97" vaporized=""/>
    <tripinfo id="WE.2" depart="39.00" departLane="E0_0" departPos="5.10" departSpeed="16.14" departDelay="0.00" arrival="145.00" arrivalLane="E2_0" arrivalPos="508.36" arrivalSpeed="16.14" duration="106.00" routeLength="1002.59" waitingTime="33.00" waitingCount="1" stopTime="0.00" timeLoss="43.44" rerouteNo="0" devices="tripinfo_WE.2 routing_WE.2" vType="car" speedFactor="1.03" vaporized=""/>
    <tripinfo id="EW.cv.5" depart="77.00" departLane="-E2_0" departPos="5.10" departSpeed="14.37" departDelay="0.00" arrival="148.00" arrivalLane="-E0_0" arrivalPos="500.03" arrivalSpeed="14.36" duration="71.00" routeLength="1001.60" waitingTime="0.00" waitingCount="0" stopTime="0.00" timeLoss="0.96" rerouteNo="0" devices="tripinfo_EW.cv.5 routing_EW.cv.5" vType="cv" speedFactor="0.92" vaporized=""/>
    <tripinfo id="NW.0" depart="87.00" departLane="E1_0" departPos="5.10" departSpeed="20.04" departDelay="0.00" arrival="151.00" arrivalLane="-E0_0" arrivalPos="500.03" arrivalSpeed="15.49" duration="64.00" routeLength="993.70" waitingTime="0.00" waitingCount="0" stopTime="0.00" timeLoss="6.91" rerouteNo="0" devices="tripinfo_NW.0 routing_NW.0" vType="car" speedFactor="1.00" vaporized=""/>
    <tripinfo id="EW.cv.7" depart="93.00" departLane="-E2_0" departPos="5.10" departSpeed="17.42" departDelay="0.00" arrival="153.00" arrivalLane="-E0_0" arrivalPos="500.03" arrivalSpeed="16.70" duration="60.00" routeLength="1001.60" waitingTime="0.00" waitingCount="0" stopTime="0.00" timeLoss="2.19" rerouteNo="0" devices="tripinfo_EW.cv.7 routing_EW.cv.7" vType="cv" speedFactor="1.11" vaporized=""/>
    <tripinfo id="SN.cv.6" depart="80.00" departLane="-E3_1" departPos="5.10" departSpeed="21.95" departDelay="0.00" arrival="155.00" arrivalLane="-E1_0" arrivalPos="498.92" arrivalSpeed="21.95" duration="75.00" routeLength="995.07" waitingTime="16.00" waitingCount="1" stopTime="0.00" timeLoss="28.69" rerouteNo="0" devices="tripinfo_SN.cv.6 routing_SN.cv.6" vType="cv" speedFactor="1.09" vaporized=""/>
    <tripinfo id="WE.3" depart="80.00" departLane="E0_1" departPos="5.10" departSpeed="13.57" departDelay="0.00" arrival="155.00" arrivalLane="E2_0" arrivalPos="508.36" arrivalSpeed="13.57" duration="75.00" routeLength="1002.59" waitingTime="0.00" waitingCount="0" stopTime="0.00" timeLoss="0.75" rerouteNo="0" devices="tripinfo_WE.3 routing_WE.3" vType="car" speedFactor="0.87" vaporized=""/>
    <tripinfo id="SN.3" depart="82.00" departLane="-E3_1" departPos="5.10" departSpeed="21.42" departDelay="0.00" arrival="155.00" arrivalLane="-E1_1" arrivalPos="498.92" arrivalSpeed="21.42" duration="73.00" routeLength="995.07" waitingTime="13.00" waitingCount="1" stopTime="0.00" timeLoss="26.02" rerouteNo="0" devices="tripinfo_SN.3 routing_SN.3" vType="car" speedFactor="1.06" vaporized=""/>
    <tripinfo id="SN.4" depart="95.00" departLane="-E3_2" departPos="5.10" departSpeed="18.65" departDelay="0.00" arrival="160.00" arrivalLane="-E1_0" arrivalPos="498.92" arrivalSpeed="18.65" duration="65.00" routeLength="995.07" waitingTime="0.00" waitingCount="0" stopTime="0.00" timeLoss="11.37" rerouteNo="0" devices="tripinfo_SN.4 routing_SN.4" vType="car" speedFactor="0.93" vaporized=""/>
    <tripinfo id="SW.cv.1" depart="67.00" departLane="-E3_3" departPos="5.10" departSpeed="21.46" departDelay="0.00" arrival="161.00" arrivalLane="-E0_1" arrivalPos="500.03" arrivalSpeed="16.69" duration="94.00" routeLength="996.18" waitingTime="28.00" waitingCount="1" stopTime="0.00" timeLoss="40.05" rerouteNo="0" devices="tripinfo_SW.cv.1 routing_SW.cv.1" vType="cv" speedFactor="1.07" vaporized=""/>
    <tripinfo id="SE.0" depart="98.00" departLane="-E3_0" departPos="5.10" departSpeed="21.08" departDelay="0.00" arrival="161.00" arrivalLane="E2_0" arrivalPos="508.36" arrivalSpeed="16.39" duration="63.00" routeLength="1004.51" waitingTime="0.00" waitingCount="0" stopTime="0.00" timeLoss="8.22" rerouteNo="0" devices="tripinfo_SE.0 routing_SE.0" vType="car" speedFactor="1.05" vaporized=""/>
    <tripinfo id="NW.cv.4" depart="94.00" departLane="E1_0" departPos="5.10" departSpeed="20.77" departDelay="0.00" arrival="162.00" arrivalLane="-E0_0" arrivalPos="500.03" arrivalSpeed="16.15" duration="68.00" routeLength="993.70" waitingTime="0.00" waitingCount="0" stopTime="0.00" timeLoss="12.32" rerouteNo="0" devices="tripinfo_NW.cv.4 routing_NW.cv.4" vType="cv" speedFactor="1.03" vaporized=""/>
    <tripinfo id="SN.cv.7" depart="114.00" departLane="-E3_2" departPos="5.10" departSpeed="22.06" departDelay="0.00" arrival="164.00" arrivalLane="-E1_1" arrivalPos="498.92" arrivalSpeed="22.06" duration="50.00" routeLength="995.07" waitingTime="0.00" waitingCount="0" stopTime="0.00" timeLoss="4.31" rerouteNo="0" devices="tripinfo_SN.cv.7 routing_SN.cv.7" vType="cv" speedFactor="1.10" vaporized=""/>
    <tripinfo id="SN.5" depart="110.00" departLane="-E3_1" departPos="5.10" departSpeed="18.67" departDelay="0.00" arrival="165.00" arrivalLane="-E1_0" arrivalPos="498.92" arrivalSpeed="18.66" duration="55.00" routeLength="995.07" waitingTime="0.00" waitingCount="0" stopTime="0.00" timeLoss="1.63" rerouteNo="0" devices="tripinfo_SN.5 routing_SN.5" vType="car" speedFactor="0.93" vaporized=""/>
    <tripinfo id="SW.2" depart="90.00" departLane="-E3_3" departPos="5.10" departSpeed="15.07" departDelay="0.00" arrival="166.00" arrivalLane="-E0_0" arrivalPos="500.03" arrivalSpeed="17.13" duration="76.00" routeLength="996.18" waitingTime="3.00" waitingCount="1" stopTime="0.00" timeLoss="23.36" rerouteNo="0" devices="tripinfo_SW.2 routing_SW.2" vType="car" speedFactor="1.10" vaporized=""/>
    <tripinfo id="SN.cv.8" depart="117.00" departLane="-E3_1" departPos="5.10" departSpeed="21.50" departDelay="0.00" arrival="167.00" arrivalLane="-E1_1" arrivalPos="498.92" arrivalSpeed="21.36" duration="50.00" routeLength="995.07" waitingTime="0.00" waitingCount="0" stopTime="0.00" timeLoss="3.26" rerouteNo="0" devices="tripinfo_SN.cv.8 routing_SN.cv.8" vType="cv" speedFactor="1.07" vaporized=""/>
    <tripinfo id="SW.1" depart="89.00" departLane="-E3_3" departPos="5.10" departSpeed="17.60" departDelay="0.00" arrival="169.00" arrivalLane="-E0_0" arrivalPos="500.03" arrivalSpeed="13.67" duration="80.00" routeLength="996.18" waitingTime="3.00" waitingCount="1" stopTime="0.00" timeLoss="14.90" rerouteNo="0" devices="tripinfo_SW.1 routing_SW.1" vType="car" speedFactor="0.87" vaporized=""/>
    <tripinfo id="WN.0" depart="91.00" departLane="E0_2" departPos="5.10" departSpeed="13.68" departDelay="0.00" arrival="168.00" arrivalLane="-E1_0" arrivalPos="498.92" arrivalSpeed="2.60" duration="77.00" routeLength="993.15" waitingTime="33.00" waitingCount="1" stopTime="0.00" timeLoss="40.81" rerouteNo="0" devices="tripinfo_WN.0 routing_WN.0" vType="car" speedFactor="0.87" vaporized="teleport"/>
    <tripinfo id="SW.cv.2" depart="99.00" departLane="-E3_3" departPos="5.10" departSpeed="21.34" departDelay="0.00" arrival="169.00" arrivalLane="-E0_1" arrivalPos="500.03" arrivalSpeed="16.60" duration="70.00" routeLength="996.18" waitingTime="1.00" waitingCount="1" stopTime="0.00" timeLoss="15.97" rerouteNo="0" devices="tripinfo_SW.cv.2 routing_SW.cv.2" vType="cv" speedFactor="1.06" vaporized=""/>
    <tripinfo id="NS.4" depart="69.00" departLane="E1_1" departPos="5.10" departSpeed="19.19" departDelay="0.00" arrival="172.00" arrivalLane="E3_0" arrivalPos="501.31" arrivalSpeed="19.19" duration="103.00" routeLength="994.98" waitingTime="38.00" waitingCount="1" stopTime="0.00" timeLoss="50.98" rerouteNo="0" devices="tripinfo_NS.4 routing_NS.4" vType="car" speedFactor="0.95" vaporized=""/>
    <tripinfo id="NS.cv.7" depart="72.00" departLane="E1_2" departPos="5.10" departSpeed="19.69" departDelay="0.00" arrival="172.00" arrivalLane="E3_1" arrivalPos="501.31" arrivalSpeed="19.69" duration="100.00" routeLength="994.98" waitingTime="36.00" waitingCount="1" stopTime="0.00" timeLoss="48.73" rerouteNo="0" devices="tripinfo_NS.cv.7 routing_NS.cv.7" vType="cv" speedFactor="0.98" vaporized=""/>
    <tripinfo id="SN.cv.9" depart="119.00" departLane="-E3_2" departPos="5.10" departSpeed="19.56" departDelay="0.00" arrival="172.00" arrivalLane="-E1_1" arrivalPos="498.92" arrivalSpeed="19.55" duration="53.00" routeLength="995.07" waitingTime="0.00" waitingCount="0" stopTime="0.00" timeLoss="1.28" rerouteNo="0" devices="tripinfo_SN.cv.9 routing_SN.cv.9" vType="cv" speedFactor="0.97" vaporized=""/>
    <tripinfo id="BSN.0" depart="120.00" departLane="-E3_1" departPos="12.10" departSpeed="20.12" departDelay="0.00" arrival="172.00" arrivalLane="-E1_0" arrivalPos="498.92" arrivalSpeed="19.54" duration="52.00" routeLength="988.07" waitingTime="0.00" waitingCount="0" stopTime="0.00" timeLoss="2.67" rerouteNo="0" devices="tripinfo_BSN.0 routing_BSN.0" vType="bus" speedFactor="1.00" vaporized=""/>
    <tripinfo id="NS.cv.9" depart="77.00" departLane="E1_2" departPos="5.10" departSpeed="19.59" departDelay="0.00" arrival="175.00" arrivalLane="E3_0" arrivalPos="501.31" arrivalSpeed="19.43" duration="98.00" routeLength="994.98" waitingTime="33.00" waitingCount="1" stopTime="0.00" timeLoss="46.92" rerouteNo="0" devices="tripinfo_NS.cv.9 routing_NS.cv.9" vType="cv" speedFactor="0.97" vaporized=""/>
    <tripinfo id="SN.cv.10" depart="124.00" departLane="-E3_2" departPos="5.10" departSpeed="20.47" departDelay="0.00" arrival="176.00" arrivalLane="-E1_1" arrivalPos="498.92" arrivalSpeed="20.42" duration="52.00" routeLength="995.07" waitingTime="0.00" waitingCount="0" stopTime="0.00" timeLoss="3.12" rerouteNo="0" devices="tripinfo_SN.cv.10 routing_SN.cv.10" vType="cv" speedFactor="1.02" vaporized=""/>
    <tripinfo id="NS.5" depart="80.00" departLane="E1_1" departPos="5.10" departSpeed="19.19" departDelay="0.00" arrival="177.00" arrivalLane="E3_1" arrivalPos="501.31" arrivalSpeed="19.18" duration="97.00" routeLength="994.98" waitingTime="31.00" waitingCount="1" stopTime="0.00" timeLoss="44.72" rerouteNo="0" devices="tripinfo_NS.5 routing_NS.5" vType="car" speedFactor="0.95" vaporized=""/>
    <tripinfo id="NS.cv.10" depart="84.00" departLane="E1_2" departPos="5.10" departSpeed="21.37" departDelay="0.00" arrival="179.00" arrivalLane="E3_1" arrivalPos="501.31" arrivalSpeed="20.43" duration="95.00" routeLength="994.98" waitingTime="30.00" waitingCount="1" stopTime="0.00" timeLoss="48.04" rerouteNo="0" devices="tripinfo_NS.cv.10 routing_NS.cv.10" vType="cv" speedFactor="1.06" vaporized=""/>