<?xml version="1.0" encoding="UTF-8"?>

<!-- generated on 2023-01-30 12:00:45 by Eclipse SUMO sumo Version 1.13.0
<configuration xmlns:xsi="http://www.w3.org/2001/XMLSchema-instance" xsi:noNamespaceSchemaLocation="http://sumo.dlr.de/xsd/sumoConfiguration.xsd">

    <input>
        <net-file value="data/Eastway-Central.net.xml"/>
        <route-files value="data/cav60-offpeak.rou.xml"/>
        <additional-files value="data/Eastway-Central.add.xml"/>
    </input>

    <output>
        <tripinfo-output value="result\2023-01-30-11-54-29\40_tripinfo.xml"/>
    </output>

    <report>
        <no-warnings value="true"/>
        <no-step-log value="true"/>
    </report>

    <traci_server>
        <remote-port value="53831"/>
    </traci_server>

    <random_number>
        <seed value="39"/>
    </random_number>

</configuration>
-->

<tripinfos xmlns:xsi="http://www.w3.org/2001/XMLSchema-instance" xsi:noNamespaceSchemaLocation="http://sumo.dlr.de/xsd/tripinfo_file.xsd">
    <tripinfo id="BNS.0" depart="0.00" departLane="E1_1" departPos="12.10" departSpeed="20.12" departDelay="0.00" arrival="50.00" arrivalLane="E3_0" arrivalPos="501.31" arrivalSpeed="20.12" duration="50.00" routeLength="987.98" waitingTime="0.00" waitingCount="0" stopTime="0.00" timeLoss="0.19" rerouteNo="0" devices="tripinfo_BNS.0 routing_BNS.0" vType="bus" speedFactor="1.00" vaporized=""/>
    <tripinfo id="SN.0" depart="5.00" departLane="-E3_1" departPos="5.10" departSpeed="21.20" departDelay="0.00" arrival="52.00" arrivalLane="-E1_0" arrivalPos="498.92" arrivalSpeed="21.20" duration="47.00" routeLength="995.07" waitingTime="0.00" waitingCount="0" stopTime="0.00" timeLoss="0.04" rerouteNo="0" devices="tripinfo_SN.0 routing_SN.0" vType="car" speedFactor="1.05" vaporized=""/>
    <tripinfo id="NW.cv.0" depart="0.00" departLane="E1_0" departPos="5.10" departSpeed="20.15" departDelay="0.00" arrival="64.00" arrivalLane="-E0_0" arrivalPos="500.03" arrivalSpeed="15.68" duration="64.00" routeLength="993.70" waitingTime="0.00" waitingCount="0" stopTime="0.00" timeLoss="6.80" rerouteNo="0" devices="tripinfo_NW.cv.0 routing_NW.cv.0" vType="cv" speedFactor="1.00" vaporized=""/>
    <tripinfo id="ES.cv.0" depart="8.00" departLane="-E2_2" departPos="5.10" departSpeed="18.10" departDelay="0.00" arrival="67.00" arrivalLane="E3_0" arrivalPos="501.31" arrivalSpeed="23.27" duration="59.00" routeLength="1002.88" waitingTime="0.00" waitingCount="0" stopTime="0.00" timeLoss="9.58" rerouteNo="0" devices="tripinfo_ES.cv.0 routing_ES.cv.0" vType="cv" speedFactor="1.16" vaporized=""/>
    <tripinfo id="WS.cv.0" depart="9.00" departLane="E0_0" departPos="5.10" departSpeed="16.76" departDelay="0.00" arrival="75.00" arrivalLane="E3_0" arrivalPos="501.31" arrivalSpeed="21.54" duration="66.00" routeLength="995.54" waitingTime="0.00" waitingCount="0" stopTime="0.00" timeLoss="12.91" rerouteNo="0" devices="tripinfo_WS.cv.0 routing_WS.cv.0" vType="cv" speedFactor="1.07" vaporized=""/>
    <tripinfo id="SE.cv.0" depart="18.00" departLane="-E3_0" departPos="5.10" departSpeed="21.52" departDelay="0.00" arrival="78.00" arrivalLane="E2_0" arrivalPos="508.36" arrivalSpeed="16.74" duration="60.00" routeLength="1004.51" waitingTime="0.00" waitingCount="0" stopTime="0.00" timeLoss="6.18" rerouteNo="0" devices="tripinfo_SE.cv.0 routing_SE.cv.0" vType="cv" speedFactor="1.07" vaporized=""/>
    <tripinfo id="EW.cv.0" depart="16.00" departLane="-E2_0" departPos="5.10" departSpeed="15.33" departDelay="0.00" arrival="82.00" arrivalLane="-E0_0" arrivalPos="500.03" arrivalSpeed="15.33" duration="66.00" routeLength="1001.60" waitingTime="0.00" waitingCount="0" stopTime="0.00" timeLoss="0.29" rerouteNo="0" devices="tripinfo_EW.cv.0 routing_EW.cv.0" vType="cv" speedFactor="0.98" vaporized=""/>
    <tripinfo id="WE.0" depart="7.00" departLane="E0_0" departPos="5.10" departSpeed="17.40" departDelay="0.00" arrival="84.00" arrivalLane="E2_0" arrivalPos="508.36" arrivalSpeed="17.39" duration="77.00" routeLength="1002.59" waitingTime="8.00" waitingCount="1" stopTime="0.00" timeLoss="19.09" rerouteNo="0" devices="tripinfo_WE.0 routing_WE.0" vType="car" speedFactor="1.11" vaporized=""/>
    <tripinfo id="SE.cv.1" depart="33.00" departLane="-E3_0" departPos="5.10" departSpeed="21.76" departDelay="0.00" arrival="93.00" arrivalLane="E2_0" arrivalPos="508.36" arrivalSpeed="16.93" duration="60.00" routeLength="1004.51" waitingTime="0.00" waitingCount="0" stopTime="0.00" timeLoss="6.61" rerouteNo="0" devices="tripinfo_SE.cv.1 routing_SE.cv.1" vType="cv" speedFactor="1.08" vaporized=""/>
    <tripinfo id="NS.cv.1" depart="20.00" departLane="E1_2" departPos="5.10" departSpeed="21.79" departDelay="0.00" arrival="96.00" arrivalLane="E3_0" arrivalPos="501.31" arrivalSpeed="21.79" duration="76.00" routeLength="994.98" waitingTime="16.00" waitingCount="1" stopTime="0.00" timeLoss="29.60" rerouteNo="0" devices="tripinfo_NS.cv.1 routing_NS.cv.1" vType="cv" speedFactor="1.08" vaporized=""/>
    <tripinfo id="ES.cv.1" depart="59.00" departLane="-E2_2" departPos="5.10" departSpeed="15.51" departDelay="0.00" arrival="96.00" arrivalLane="E3_0" arrivalPos="501.31" arrivalSpeed="4.65" duration="37.00" routeLength="1002.88" waitingTime="0.00" waitingCount="0" stopTime="0.00" timeLoss="4.63" rerouteNo="0" devices="tripinfo_ES.cv.1 routing_ES.cv.1" vType="cv" speedFactor="0.99" vaporized="teleport"/>
    <tripinfo id="NS.cv.0" depart="17.00" departLane="E1_2" departPos="5.10" departSpeed="19.54" departDelay="0.00" arrival="98.00" arrivalLane="E3_0" arrivalPos="501.31" arrivalSpeed="19.37" duration="81.00" routeLength="994.98" waitingTime="18.00" waitingCount="1" stopTime="0.00" timeLoss="30.05" rerouteNo="0" devices="tripinfo_NS.cv.0 routing_NS.cv.0" vType="cv" speedFactor="0.97" vaporized=""/>
    <tripinfo id="NS.cv.2" depart="24.00" departLane="E1_1" departPos="5.10" departSpeed="22.14" departDelay="0.00" arrival="98.00" arrivalLane="E3_1" arrivalPos="501.31" arrivalSpeed="22.13" duration="74.00" routeLength="994.98" waitingTime="14.00" waitingCount="1" stopTime="0.00" timeLoss="28.74" rerouteNo="0" devices="tripinfo_NS.cv.2 routing_NS.cv.2" vType="cv" speedFactor="1.10" vaporized=""/>
    <tripinfo id="NS.0" depart="19.00" departLane="E1_1" departPos="5.10" departSpeed="22.83" departDelay="0.00" arrival="100.00" arrivalLane="E3_0" arrivalPos="501.31" arrivalSpeed="21.17" duration="81.00" routeLength="994.98" waitingTime="17.00" waitingCount="1" stopTime="0.00" timeLoss="37.13" rerouteNo="0" devices="tripinfo_NS.0 routing_NS.0" vType="car" speedFactor="1.13" vaporized=""/>
    <tripinfo id="NS.cv.3" depart="29.00" departLane="E1_2" departPos="5.10" departSpeed="22.37" departDelay="0.00" arrival="101.00" arrivalLane="E3_1" arrivalPos="501.31" arrivalSpeed="22.11" duration="72.00" routeLength="994.98" waitingTime="11.00" waitingCount="1" stopTime="0.00" timeLoss="26.84" rerouteNo="0" devices="tripinfo_NS.cv.3 routing_NS.cv.3" vType="cv" speedFactor="1.11" vaporized=""/>
    <tripinfo id="NS.cv.4" depart="37.00" departLane="E1_1" departPos="5.10" departSpeed="20.02" departDelay="0.00" arrival="103.00" arrivalLane="E3_0" arrivalPos="501.31" arrivalSpeed="19.82" duration="66.00" routeLength="994.98" waitingTime="0.00" waitingCount="0" stopTime="0.00" timeLoss="15.75" rerouteNo="0" devices="tripinfo_NS.cv.4 routing_NS.cv.4" vType="cv" speedFactor="1.00" vaporized=""/>
    <tripinfo id="NE.0" depart="35.00" departLane="E1_3" departPos="5.10" departSpeed="19.89" departDelay="0.00" arrival="104.00" arrivalLane="E2_1" arrivalPos="508.36" arrivalSpeed="15.47" duration="69.00" routeLength="1002.03" waitingTime="0.00" waitingCount="0" stopTime="0.00" timeLoss="11.02" rerouteNo="0" devices="tripinfo_NE.0 routing_NE.0" vType="car" speedFactor="0.99" vaporized=""/>
    <tripinfo id="NS.1" depart="39.00" departLane="E1_2" departPos="5.10" departSpeed="20.48" departDelay="0.00" arrival="104.00" arrivalLane="E3_1" arrivalPos="501.31" arrivalSpeed="20.38" duration="65.00" routeLength="994.98" waitingTime="0.00" waitingCount="0" stopTime="0.00" timeLoss="16.04" rerouteNo="0" devices="tripinfo_NS.1 routing_NS.1" vType="car" speedFactor="1.02" vaporized=""/>
    <tripinfo id="SE.cv.2" depart="42.00" departLane="-E3_0" departPos="5.10" departSpeed="20.74" departDelay="0.00" arrival="104.00" arrivalLane="E2_0" arrivalPos="508.36" arrivalSpeed="16.13" duration="62.00" routeLength="1004.51" waitingTime="0.00" waitingCount="0" stopTime="0.00" timeLoss="6.26" rerouteNo="0" devices="tripinfo_SE.cv.2 routing_SE.cv.2" vType="cv" speedFactor="1.03" vaporized=""/>
    <tripinfo id="SN.cv.1" depart="24.00" departLane="-E3_1" departPos="5.10" departSpeed="22.56" departDelay="0.00" arrival="105.00" arrivalLane="-E1_0" arrivalPos="498.92" arrivalSpeed="22.56" duration="81.00" routeLength="995.07" waitingTime="21.00" waitingCount="1" stopTime="0.00" timeLoss="36.43" rerouteNo="0" devices="tripinfo_SN.cv.1 routing_SN.cv.1" vType="cv" speedFactor="1.12" vaporized=""/>
    <tripinfo id="SN.cv.0" depart="23.00" departLane="-E3_2" departPos="5.10" departSpeed="20.08" departDelay="0.00" arrival="108.00" arrivalLane="-E1_0" arrivalPos="498.92" arrivalSpeed="19.97" duration="85.00" routeLength="995.07" waitingTime="22.00" waitingCount="1" stopTime="0.00" timeLoss="34.62" rerouteNo="0" devices="tripinfo_SN.cv.0 routing_SN.cv.0" vType="cv" speedFactor="1.00" vaporized=""/>
    <tripinfo id="NS.cv.5" depart="44.00" departLane="E1_1" departPos="5.10" departSpeed="18.15" departDelay="0.00" arrival="108.00" arrivalLane="E3_0" arrivalPos="501.31" arrivalSpeed="18.15" duration="64.00" routeLength="994.98" waitingTime="0.00" waitingCount="0" stopTime="0.00" timeLoss="9.02" rerouteNo="0" devices="tripinfo_NS.cv.5 routing_NS.cv.5" vType="cv" speedFactor="0.90" vaporized=""/>
    <tripinfo id="NS.cv.7" depart="53.00" departLane="E1_1" departPos="5.10" departSpeed="22.46" departDelay="0.00" arrival="108.00" arrivalLane="E3_1" arrivalPos="501.31" arrivalSpeed="22.33" duration="55.00" routeLength="994.98" waitingTime="0.00" waitingCount="0" stopTime="0.00" timeLoss="9.85" rerouteNo="0" devices="tripinfo_NS.cv.7 routing_NS.cv.7" vType="cv" speedFactor="1.12" vaporized=""/>
    <tripinfo id="SN.1" depart="50.00" departLane="-E3_1" departPos="5.10" departSpeed="21.65" departDelay="0.00" arrival="109.00" arrivalLane="-E1_1" arrivalPos="498.92" arrivalSpeed="21.63" duration="59.00" routeLength="995.07" waitingTime="0.00" waitingCount="0" stopTime="0.00" timeLoss="12.32" rerouteNo="0" devices="tripinfo_SN.1 routing_SN.1" vType="car" speedFactor="1.08" vaporized=""/>
    <tripinfo id="NS.cv.6" depart="48.00" departLane="E1_2" departPos="5.10" departSpeed="20.70" departDelay="0.00" arrival="110.00" arrivalLane="E3_0" arrivalPos="501.31" arrivalSpeed="19.60" duration="62.00" routeLength="994.98" waitingTime="0.00" waitingCount="0" stopTime="0.00" timeLoss="13.63" rerouteNo="0" devices="tripinfo_NS.cv.6 routing_NS.cv.6" vType="cv" speedFactor="1.03" vaporized=""/>
    <tripinfo id="NS.2" depart="59.00" departLane="E1_1" departPos="5.10" departSpeed="21.15" departDelay="0.00" arrival="111.00" arrivalLane="E3_1" arrivalPos="501.31" arrivalSpeed="21.03" duration="52.00" routeLength="994.98" waitingTime="0.00" waitingCount="0" stopTime="0.00" timeLoss="4.25" rerouteNo="0" devices="tripinfo_NS.2 routing_NS.2" vType="car" speedFactor="1.05" vaporized=""/>
    <tripinfo id="SN.cv.2" depart="36.00" departLane="-E3_2" departPos="5.10" departSpeed="18.49" departDelay="0.00" arrival="112.00" arrivalLane="-E1_0" arrivalPos="498.92" arrivalSpeed="18.45" duration="76.00" routeLength="995.07" waitingTime="8.00" waitingCount="1" stopTime="0.00" timeLoss="21.68" rerouteNo="0" devices="tripinfo_SN.cv.2 routing_SN.cv.2" vType="cv" speedFactor="0.92" vaporized=""/>
    <tripinfo id="NS.cv.8" depart="61.00" departLane="E1_2" departPos="5.10" departSpeed="21.68" departDelay="0.00" arrival="113.00" arrivalLane="E3_1" arrivalPos="501.31" arrivalSpeed="21.12" duration="52.00" routeLength="994.98" waitingTime="0.00" waitingCount="0" stopTime="0.00" timeLoss="5.76" rerouteNo="0" devices="tripinfo_NS.cv.8 routing_NS.cv.8" vType="cv" speedFactor="1.08" vaporized=""/>
    <tripinfo id="SN.cv.3" depart="45.00" departLane="-E3_1" departPos="5.10" departSpeed="22.15" departDelay="0.00" arrival="114.00" arrivalLane="-E1_1" arrivalPos="498.92" arrivalSpeed="21.00" duration="69.00" routeLength="995.07" waitingTime="5.00" waitingCount="1" stopTime="0.00" timeLoss="23.21" rerouteNo="0" devices="tripinfo_SN.cv.3 routing_SN.cv.3" vType="cv" speedFactor="1.10" vaporized=""/>
    <tripinfo id="NW.0" depart="52.00" departLane="E1_0" departPos="5.10" departSpeed="20.52" departDelay="0.00" arrival="114.00" arrivalLane="-E0_0" arrivalPos="500.03" arrivalSpeed="15.96" duration="62.00" routeLength="993.70" waitingTime="0.00" waitingCount="0" stopTime="0.00" timeLoss="6.03" rerouteNo="0" devices="tripinfo_NW.0 routing_NW.0" vType="car" speedFactor="1.02" vaporized=""/>
    <tripinfo id="NW.1" depart="61.00" departLane="E1_0" departPos="5.10" departSpeed="23.81" departDelay="0.00" arrival="118.00" arrivalLane="-E0_1" arrivalPos="500.03" arrivalSpeed="18.52" duration="57.00" routeLength="993.70" waitingTime="0.00" waitingCount="0" stopTime="0.00" timeLoss="9.13" rerouteNo="0" devices="tripinfo_NW.1 routing_NW.1" vType="car" speedFactor="1.18" vaporized=""/>
    <tripinfo id="WS.cv.1" depart="52.00" departLane="E0_0" departPos="5.10" departSpeed="16.87" departDelay="0.00" arrival="126.00" arrivalLane="E3_1" arrivalPos="501.31" arrivalSpeed="21.69" duration="74.00" routeLength="995.54" waitingTime="7.00" waitingCount="1" stopTime="0.00" timeLoss="20.72" rerouteNo="0" devices="tripinfo_WS.cv.1 routing_WS.cv.1" vType="cv" speedFactor="1.08" vaporized=""/>
    <tripinfo id="WS.0" depart="28.00" departLane="E0_0" departPos="5.10" departSpeed="13.51" departDelay="0.00" arrival="128.00" arrivalLane="E3_0" arrivalPos="501.31" arrivalSpeed="17.37" duration="100.00" routeLength="995.54" waitingTime="23.00" waitingCount="1" stopTime="0.00" timeLoss="33.69" rerouteNo="0" devices="tripinfo_WS.0 routing_WS.0" vType="car" speedFactor="0.86" vaporized=""/>
    <tripinfo id="EW.cv.1" depart="36.00" departLane="-E2_1" departPos="5.10" departSpeed="16.14" departDelay="0.00" arrival="130.00" arrivalLane="-E0_0" arrivalPos="500.03" arrivalSpeed="16.14" duration="94.00" routeLength="1001.60" waitingTime="21.00" waitingCount="1" stopTime="0.00" timeLoss="31.00" rerouteNo="0" devices="tripinfo_EW.cv.1 routing_EW.cv.1" vType="cv" speedFactor="1.03" vaporized=""/>
    <tripinfo id="SE.0" depart="70.00" departLane="-E3_0" departPos="5.10" departSpeed="21.85" departDelay="0.00" arrival="132.00" arrivalLane="E2_1" arrivalPos="508.36" arrivalSpeed="17.00" duration="62.00" routeLength="1004.51" waitingTime="0.00" waitingCount="0" stopTime="0.00" timeLoss="8.66" rerouteNo="0" devices="tripinfo_SE.0 routing_SE.0" vType="car" speedFactor="1.09" vaporized=""/>
    <tripinfo id="EW.cv.2" depart="49.00" departLane="-E2_1" departPos="5.10" departSpeed="13.80" departDelay="0.00" arrival="135.00" arrivalLane="-E0_0" arrivalPos="500.03" arrivalSpeed="13.79" duration="86.00" routeLength="1001.60" waitingTime="2.00" waitingCount="1" stopTime="0.00" timeLoss="12.79" rerouteNo="0" devices="tripinfo_EW.cv.2 routing_EW.cv.2" vType="cv" speedFactor="0.88" vaporized=""/>
    <tripinfo id="EW.0" depart="61.00" departLane="-E2_0" departPos="5.10" departSpeed="14.42" departDelay="0.00" arrival="135.00" arrivalLane="-E0_1" arrivalPos="500.03" arrivalSpeed="14.42" duration="74.00" routeLength="1001.60" waitingTime="0.00" waitingCount="0" stopTime="0.00" timeLoss="4.26" rerouteNo="0" devices="tripinfo_EW.0 routing_EW.0" vType="car" speedFactor="0.92" vaporized=""/>
    <tripinfo id="WE.cv.0" depart="40.00" departLane="E0_1" departPos="5.10" departSpeed="19.57" departDelay="0.00" arrival="136.00" arrivalLane="E2_1" arrivalPos="508.36" arrivalSpeed="19.49" duration="96.00" routeLength="1002.59" waitingTime="32.00" waitingCount="1" stopTime="0.00" timeLoss="44.01" rerouteNo="0" devices="tripinfo_WE.cv.0 routing_WE.cv.0" vType="cv" speedFactor="1.25" vaporized=""/>
    <tripinfo id="EW.cv.3" depart="59.00" departLane="-E2_1" departPos="5.10" departSpeed="14.37" departDelay="0.00" arrival="138.00" arrivalLane="-E0_0" arrivalPos="500.03" arrivalSpeed="14.28" duration="79.00" routeLength="1001.60" waitingTime="0.00" waitingCount="0" stopTime="0.00" timeLoss="8.45" rerouteNo="0" devices="tripinfo_EW.cv.3 routing_EW.cv.3" vType="cv" speedFactor="0.92" vaporized=""/>
    <tripinfo id="SE.cv.3" depart="62.00" departLane="-E3_0" departPos="5.10" departSpeed="16.48" departDelay="0.00" arrival="138.00" arrivalLane="E2_0" arrivalPos="508.36" arrivalSpeed="12.82" duration="76.00" routeLength="1004.51" waitingTime="0.00" waitingCount="0" stopTime="0.00" timeLoss="5.56" rerouteNo="0" devices="tripinfo_SE.cv.3 routing_SE.cv.3" vType="cv" speedFactor="0.82" vaporized=""/>
    <tripinfo id="NW.2" depart="67.00" departLane="E1_0" departPos="5.10" departSpeed="16.63" departDelay="0.00" arrival="147.00" arrivalLane="-E0_0" arrivalPos="500.03" arrivalSpeed="12.94" duration="80.00" routeLength="993.70" waitingTime="1.00" waitingCount="1" stopTime="0.00" timeLoss="10.79" rerouteNo="0" devices="tripinfo_NW.2 routing_NW.2" vType="car" speedFactor="0.83" vaporized=""/>
    <tripinfo id="EN.cv.0" depart="84.00" departLane="-E2_0" departPos="5.10" departSpeed="16.97" departDelay="0.00" arrival="150.00" arrivalLane="-E1_0" arrivalPos="498.92" arrivalSpeed="21.82" duration="66.00" routeLength="1000.49" waitingTime="1.00" waitingCount="1" stopTime="0.00" timeLoss="12.70" rerouteNo="0" devices="tripinfo_EN.cv.0 routing_EN.cv.0" vType="cv" speedFactor="1.08" vaporized=""/>
    <tripinfo id="ES.cv.2" depart="70.00" departLane="-E2_3" departPos="5.10" departSpeed="13.95" departDelay="0.00" arrival="153.00" arrivalLane="E3_0" arrivalPos="501.31" arrivalSpeed="2.60" duration="83.00" routeLength="1002.88" waitingTime="39.00" waitingCount="1" stopTime="0.00" timeLoss="46.97" rerouteNo="0" devices="tripinfo_ES.cv.2 routing_ES.cv.2" vType="cv" speedFactor="0.89" vaporized="teleport"/>
    <tripinfo id="NE.cv.0" depart="56.00" departLane="E1_3" departPos="5.10" departSpeed="22.22" departDelay="0.00" arrival="155.00" arrivalLane="E2_0" arrivalPos="508.36" arrivalSpeed="17.28" duration="99.00" routeLength="1002.03" waitingTime="35.00" waitingCount="1" stopTime="0.00" timeLoss="47.06" rerouteNo="0" devices="tripinfo_NE.cv.0 routing_NE.cv.0" vType="cv" speedFactor="1.10" vaporized=""/>
    <tripinfo id="SW.0" depart="73.00" departLane="-E3_3" departPos="5.10" departSpeed="20.95" departDelay="0.00" arrival="156.00" arrivalLane="-E0_0" arrivalPos="500.03" arrivalSpeed="16.29" duration="83.00" routeLength="996.18" waitingTime="17.00" waitingCount="1" stopTime="0.00" timeLoss="28.46" rerouteNo="0" devices="tripinfo_SW.0 routing_SW.0" vType="car" speedFactor="1.04" vaporized=""/>
    <tripinfo id="WS.cv.3" depart="99.00" departLane="E0_0" departPos="5.10" departSpeed="12.17" departDelay="0.00" arrival="156.00" arrivalLane="E3_0" arrivalPos="501.31" arrivalSpeed="5.11" duration="57.00" routeLength="995.54" waitingTime="13.00" waitingCount="1" stopTime="0.00" timeLoss="30.21" rerouteNo="0" devices="tripinfo_WS.cv.3 routing_WS.cv.3" vType="cv" speedFactor="1.18" vaporized="teleport"/>
    <tripinfo id="SN.cv.5" depart="75.00" departLane="-E3_1" departPos="5.10" departSpeed="23.72" departDelay="0.00" arrival="158.00" arrivalLane="-E1_1" arrivalPos="498.92" arrivalSpeed="23.72" duration="83.00" routeLength="995.07" waitingTime="25.00" waitingCount="1" stopTime="0.00" timeLoss="40.76" rerouteNo="0" devices="tripinfo_SN.cv.5 routing_SN.cv.5" vType="cv" speedFactor="1.18" vaporized=""/>
    <tripinfo id="SE.cv.4" depart="91.00" departLane="-E3_0" departPos="5.10" departSpeed="19.37" departDelay="0.00" arrival="159.00" arrivalLane="E2_0" arrivalPos="508.36" arrivalSpeed="15.05" duration="68.00" routeLength="1004.51" waitingTime="0.00" waitingCount="0" stopTime="0.00" timeLoss="7.96" rerouteNo="0" devices="tripinfo_SE.cv.4 routing_SE.cv.4" vType="cv" speedFactor="0.96" vaporized=""/>
    <tripinfo id="NS.cv.9" depart="78.00" departLane="E1_1" departPos="5.10" departSpeed="21.47" departDelay="0.00" arrival="161.00" arrivalLane="E3_0" arrivalPos="501.31" arrivalSpeed="21.47" duration="83.00" routeLength="994.98" waitingTime="23.00" waitingCount="1" stopTime="0.00" timeLoss="36.20" rerouteNo="0" devices="tripinfo_NS.cv.9 routing_NS.cv.9" vType="cv" speedFactor="1.07" vaporized=""/>
    <tripinfo id="NS.3" depart="85.00" departLane="E1_2" departPos="5.10" departSpeed="21.03" departDelay="0.00" arrival="161.00" arrivalLane="E3_1" arrivalPos="501.31" arrivalSpeed="21.03" duration="76.00" routeLength="994.98" waitingTime="16.00" waitingCount="1" stopTime="0.00" timeLoss="28.61" rerouteNo="0" devices="tripinfo_NS.3 routing_NS.3" vType="car" speedFactor="1.04" vaporized=""/>
    <tripinfo id="SN.cv.4" depart="70.00" departLane="-E3_1" departPos="5.10" departSpeed="17.22" departDelay="0.00" arrival="165.00" arrivalLane="-E1_0" arrivalPos="498.92" arrivalSpeed="17.22" duration="95.00" routeLength="995.07" waitingTime="25.00" waitingCount="1" stopTime="0.00" timeLoss="36.47" rerouteNo="0" devices="tripinfo_SN.cv.4 routing_SN.cv.4" vType="cv" speedFactor="0.86" vaporized=""/>
    <tripinfo id="NS.cv.10" depart="84.00" departLane="E1_1" departPos="5.10" departSpeed="20.56" departDelay="0.00" arrival="165.00" arrivalLane="E3_0" arrivalPos="501.31" arrivalSpeed="20.51" duration="81.00" routeLength="994.98" waitingTime="18.00" waitingCount="1" stopTime="0.00" timeLoss="31.78" rerouteNo="0" devices="tripinfo_NS.cv.10 routing_NS.cv.10" vType="cv" speedFactor="1.02" vaporized=""/>
    <tripinfo id="SN.cv.7" depart="77.00" departLane="-E3_2" departPos="5.10" departSpeed="18.15" departDelay="0.00" arrival="166.00" arrivalLane="-E1_1" arrivalPos="498.92" arrivalSpeed="18.15" duration="89.00" routeLength="995.07" waitingTime="21.00" waitingCount="1" stopTime="0.00" timeLoss="33.43" rerouteNo="0" devices="tripinfo_SN.cv.7 routing_SN.cv.7" vType="cv" speedFactor="0.90" vaporized=""/>
    <tripinfo id="NS.cv.11" depart="86.00" departLane="E1_2" departPos="5.10" departSpeed="17.75" departDelay="0.00" arrival="166.00" arrivalLane="E3_1" arrivalPos="501.31" arrivalSpeed="19.57" duration="80.00" routeLength="994.98" waitingTime="14.00" waitingCount="1" stopTime="0.00" timeLoss="28.27" rerouteNo="0" devices="tripinfo_NS.cv.11 routing_NS.cv.11" vType="cv" speedFactor="0.97" vaporized=""/>
    <tripinfo id="SW.cv.0" depart="94.00" departLane="-E3_3" departPos="5.10" departSpeed="16.48" departDelay="0.00" arrival="166.00" arrivalLane="-E0_0" arrivalPos="500.03" arrivalSpeed="12.82" duration="72.00" routeLength="996.18" waitingTime="0.00" waitingCount="0" stopTime="0.00" timeLoss="2.51" rerouteNo="0" devices="tripinfo_SW.cv.0 routing_SW.cv.0" vType="cv" speedFactor="0.82" vaporized=""/>
    <tripinfo id="NW.cv.1" depart="102.00" departLane="E1_0" departPos="5.10" departSpeed="20.98" departDelay="0.00" arrival="166.00" arrivalLane="-E0_1" arrivalPos="500.03" arrivalSpeed="16.32" duration="64.00" routeLength="993.70" waitingTime="0.00" waitingCount="0" stopTime="0.00" timeLoss="8.98" rerouteNo="0" devices="tripinfo_NW.cv.1 routing_NW.cv.1" vType="cv" speedFactor="1.04" vaporized=""/>
    <tripinfo id="SN.cv.6" depart="76.00" departLane="-E3_1" departPos="5.10" departSpeed="17.78" departDelay="0.00" arrival="168.00" arrivalLane="-E1_0" arrivalPos="498.92" arrivalSpeed="17.65" duration="92.00" routeLength="995.07" waitingTime="22.00" waitingCount="1" stopTime="0.00" timeLoss="35.18" rerouteNo="0" devices="tripinfo_SN.cv.6 routing_SN.cv.6" vType="cv" speedFactor="0.88" vaporized=""/>
    <tripinfo id="NS.cv.12" depart="88.00" departLane="E1_1" departPos="5.10" departSpeed="19.40" departDelay="0.00" arrival="168.00" arrivalLane="E3_1" arrivalPos="501.31" arrivalSpeed="20.60" duration="80.00" routeLength="994.98" waitingTime="14.00" waitingCount="1" stopTime="0.00" timeLoss="32.79" rerouteNo="0" devices="tripinfo_NS.cv.12 routing_NS.cv.12" vType="cv" speedFactor="1.06" vaporized=""/>
    <tripinfo id="SN.cv.8" depart="97.00" departLane="-E3_1" departPos="5.10" departSpeed="18.80" departDelay="0.00" arrival="168.00" arrivalLane="-E1_1" arrivalPos="498.92" arrivalSpeed="18.48" duration="71.00" routeLength="995.07" waitingTime="2.00" waitingCount="1" stopTime="0.00" timeLoss="18.06" rerouteNo="0" devices="tripinfo_SN.cv.8 routing_SN.cv.8" vType="cv" speedFactor="0.93" vaporized=""/>
    <tripinfo id="NS.4" depart="86.00" departLane="E1_1" departPos="5.10" departSpeed="18.79" departDelay="0.00" arrival="169.00" arrivalLane="E3_0" arrivalPos="501.31" arrivalSpeed="18.76" duration="83.00" routeLength="994.98" waitingTime="16.00" waitingCount="1" stopTime="0.00" timeLoss="29.28" rerouteNo="0" devices="tripinfo_NS.4 routing_NS.4" vType="car" speedFactor="0.93" vaporized=""/>
    <tripinfo id="NS.5" depart="91.00" departLane="E1_2" departPos="5.10" departSpeed="18.76" departDelay="0.00" arrival="171.00" arrivalLane="E3_0" arrivalPos="501.31" arrivalSpeed="18.68" duration="80.00" routeLength="994.98" waitingTime="12.00" waitingCount="1" stopTime="0.00" timeLoss="26.58" rerouteNo="0" devices="tripinfo_NS.5 routing_NS.5" vType="car" speedFactor="0.93" vaporized=""/>
    <tripinfo id="SN.cv.9" depart="106.00" departLane="-E3_1" departPos="5.10" departSpeed="18.80" departDelay="0.00" arrival="171.00" arrivalLane="-E1_0" arrivalPos="498.92" arrivalSpeed="18.63" duration="65.00" routeLength="995.07" waitingTime="0.00" waitingCount="0" stopTime="0.00" timeLoss="11.19" rerouteNo="0" devices="tripinfo_SN.cv.9 routing_SN.cv.9" vType="cv" speedFactor="0.93" vaporized=""/>
    <tripinfo id="BSN.0" depart="120.00" departLane="-E3_2" departPos="12.10" departSpeed="20.12" departDelay="0.00" arrival="173.00" arrivalLane="-E1_1" arrivalPos="498.92" arrivalSpeed="19.97" duration="53.00" routeLength="988.07" waitingTime="0.00" waitingCount="0" stopTime="0.00" timeLoss="3.86" rerouteNo="0" devices="tripinfo_BSN.0 routing_BSN.0" vType="bus" speedFactor="1.00" vaporized=""/>
    <tripinfo id="NS.6" depart="101.00" departLane="E1_1" departPos="5.10" departSpeed="18.85" departDelay="0.00" arrival="174.00" arrivalLane="E3_1" arrivalPos="501.31" arrivalSpeed="18.74" duration="73.00" routeLength="994.98" waitingTime="3.00" waitingCount="1" stopTime="0.00" timeLoss="19.45" rerouteNo="0" devices="tripinfo_NS.6 routing_NS.6" vType="car" speedFactor="0.94" vaporized=""/>
    <tripinfo id="NS.7" depart="114.00" departLane="E1_1" departPos="5.10" departSpeed="21.73" departDelay="0.00" arrival="174.00" arrivalLane="E3_0" arrivalPos="501.31" arrivalSpeed="18.66" duration="60.00" routeLength="994.98" waitingTime="0.00" waitingCount="0" stopTime="0.00" timeLoss="14.09" rerouteNo="0" devices="tripinfo_NS.7 routing_NS.7" vType="car" speedFactor="1.08" vaporized=""/>
    <tripinfo id="SN.cv.10" depart="120.00" departLane="-E3_1" departPos="5.10" departSpeed="19.84" departDelay="0.00" arrival="174.00" arrivalLane="-E1_0" arrivalPos="498.92" arrivalSpeed="19.68" duration="54.00" routeLength="995.07" waitingTime="0.00" waitingCount="0" stopTime="0.00" timeLoss="3.32" rerouteNo="0" devices="tripinfo_SN.cv.10 routing_SN.cv.10" vType="cv" speedFactor="0.99" vaporized=""/>
    <tripinfo id="NS.cv.13" depart="109.00" departLane="E1_2" departPos="5.10" departSpeed="20.78" departDelay="0.00" arrival="176.00" arrivalLane="E3_1" arrivalPos="501.31" arrivalSpeed="19.75" duration="67.00" routeLength="994.98" waitingTime="0.00" waitingCount="0" stopTime="0.00" timeLoss="18.34" rerouteNo="0" devices="tripinfo_NS.cv.13 routing_NS.cv.13" vType="cv" speedFactor="1.03" vaporized=""/>
    <tripinfo id="SE.cv.5" depart="115.00" departLane="-E3_0" departPos="5.10" departSpeed="21.34" departDelay="0.00" arrival="177.00" arrivalLane="E2_0" arrivalPos="508.36" arrivalSpeed="16.60" duration="62.00" routeLength="1004.51" waitingTime="0.00" waitingCount="0" stopTime="0.00" timeLoss="7.24" rerouteNo="0" devices="tripinfo_SE.cv.5 routing_SE.cv.5" vType="cv" speedFactor="1.06" vaporized=""/>
    <tripinfo id="ES.0" depart="87.00" departLane="-E2_3" departPos="5.10" departSpeed="16.33" departDelay="0.00" arrival="181.00" arrivalLane="E3_0" arrivalPos="501.31" arrivalSpeed="20.96" duration="94.00" routeLength="1002.88" waitingTime="26.00" waitingCount="1" stopTime="0.00" timeLoss="38.67" rerouteNo="0" devices="tripinfo_ES.0 routing_ES.0" vType="car" speedFactor="1.04" vaporized=""/>
    <tripinfo id="WS.cv.2" depart="98.00" departLane="E0_0" departPos="5.10" departSpeed="15.08" departDelay="0.00" arrival="182.00" arrivalLane="E3_0" arrivalPos="501.31" arrivalSpeed="18.50" duration="84.00" routeLength="995.54" waitingTime="14.00" waitingCount="1" stopTime="0.00" timeLoss="25.29" rerouteNo="0" devices="tripinfo_WS.cv.2 routing_WS.cv.2" vType="cv" speedFactor="0.96" vaporized=""/>
    <tripinfo id="ES.cv.3" depart="101.00" departLane="-E2_3" departPos="5.10" departSpeed="17.08" departDelay="0.00" arrival="183.00" arrivalLane="E3_0" arrivalPos="501.31" arrivalSpeed="21.82" duration="82.00" routeLength="1002.88" waitingTime="15.00" waitingCount="1" stopTime="0.00" timeLoss="29.41" rerouteNo="0" devices="tripinfo_ES.cv.3 routing_ES.cv.3" vType="cv" speedFactor="1.09" vaporized=""/>
    <tripinfo id="EN.0" depart="119.00" departLane="-E2_0" departPos="5.10" departSpeed="15.82" departDelay="0.00" arrival="183.00" arrivalLane="-E1_1" arrivalPos="498.92" arrivalSpeed="20.34" duration="64.00" routeLength="1000.49" waitingTime="0.00" waitingCount="0" stopTime="0.00" timeLoss="7.29" rerouteNo="0" devices="tripinfo_EN.0 routing_EN.0" vType="car" speedFactor="1.01" vaporized=""/>