<?xml version="1.0" encoding="UTF-8"?>

<!-- generated on 2023-01-30 12:01:22 by Eclipse SUMO sumo Version 1.13.0
<configuration xmlns:xsi="http://www.w3.org/2001/XMLSchema-instance" xsi:noNamespaceSchemaLocation="http://sumo.dlr.de/xsd/sumoConfiguration.xsd">

    <input>
        <net-file value="data/Eastway-Central.net.xml"/>
        <route-files value="data/cav60-offpeak.rou.xml"/>
        <additional-files value="data/Eastway-Central.add.xml"/>
    </input>

    <output>
        <tripinfo-output value="result\2023-01-30-11-54-29\44_tripinfo.xml"/>
    </output>

    <report>
        <no-warnings value="true"/>
        <no-step-log value="true"/>
    </report>

    <traci_server>
        <remote-port value="53858"/>
    </traci_server>

    <random_number>
        <seed value="43"/>
    </random_number>

</configuration>
-->

<tripinfos xmlns:xsi="http://www.w3.org/2001/XMLSchema-instance" xsi:noNamespaceSchemaLocation="http://sumo.dlr.de/xsd/tripinfo_file.xsd">
    <tripinfo id="BNS.0" depart="0.00" departLane="E1_2" departPos="12.10" departSpeed="20.12" departDelay="0.00" arrival="50.00" arrivalLane="E3_0" arrivalPos="501.31" arrivalSpeed="20.12" duration="50.00" routeLength="987.98" waitingTime="0.00" waitingCount="0" stopTime="0.00" timeLoss="0.19" rerouteNo="0" devices="tripinfo_BNS.0 routing_BNS.0" vType="bus" speedFactor="1.00" vaporized=""/>
    <tripinfo id="SN.cv.0" depart="4.00" departLane="-E3_1" departPos="5.10" departSpeed="20.37" departDelay="0.00" arrival="53.00" arrivalLane="-E1_0" arrivalPos="498.92" arrivalSpeed="20.37" duration="49.00" routeLength="995.07" waitingTime="0.00" waitingCount="0" stopTime="0.00" timeLoss="0.04" rerouteNo="0" devices="tripinfo_SN.cv.0 routing_SN.cv.0" vType="cv" speedFactor="1.01" vaporized=""/>
    <tripinfo id="NS.0" depart="1.00" departLane="E1_2" departPos="5.10" departSpeed="16.95" departDelay="0.00" arrival="55.00" arrivalLane="E3_1" arrivalPos="501.31" arrivalSpeed="19.06" duration="54.00" routeLength="994.98" waitingTime="0.00" waitingCount="0" stopTime="0.00" timeLoss="1.10" rerouteNo="0" devices="tripinfo_NS.0 routing_NS.0" vType="car" speedFactor="0.95" vaporized=""/>
    <tripinfo id="NS.cv.0" depart="0.00" departLane="E1_1" departPos="5.10" departSpeed="18.06" departDelay="0.00" arrival="56.00" arrivalLane="E3_0" arrivalPos="501.31" arrivalSpeed="18.06" duration="56.00" routeLength="994.98" waitingTime="0.00" waitingCount="0" stopTime="0.00" timeLoss="0.72" rerouteNo="0" devices="tripinfo_NS.cv.0 routing_NS.cv.0" vType="cv" speedFactor="0.90" vaporized=""/>
    <tripinfo id="SN.cv.1" depart="5.00" departLane="-E3_2" departPos="5.10" departSpeed="19.33" departDelay="0.00" arrival="58.00" arrivalLane="-E1_1" arrivalPos="498.92" arrivalSpeed="19.33" duration="53.00" routeLength="995.07" waitingTime="0.00" waitingCount="0" stopTime="0.00" timeLoss="0.59" rerouteNo="0" devices="tripinfo_SN.cv.1 routing_SN.cv.1" vType="cv" speedFactor="0.96" vaporized=""/>
    <tripinfo id="SN.cv.2" depart="7.00" departLane="-E3_1" departPos="5.10" departSpeed="19.48" departDelay="0.00" arrival="61.00" arrivalLane="-E1_0" arrivalPos="498.92" arrivalSpeed="19.41" duration="54.00" routeLength="995.07" waitingTime="0.00" waitingCount="0" stopTime="0.00" timeLoss="2.12" rerouteNo="0" devices="tripinfo_SN.cv.2 routing_SN.cv.2" vType="cv" speedFactor="0.97" vaporized=""/>
    <tripinfo id="WN.cv.0" depart="0.00" departLane="E0_2" departPos="5.10" departSpeed="16.01" departDelay="0.00" arrival="69.00" arrivalLane="-E1_1" arrivalPos="498.92" arrivalSpeed="20.59" duration="69.00" routeLength="993.15" waitingTime="1.00" waitingCount="1" stopTime="0.00" timeLoss="13.19" rerouteNo="0" devices="tripinfo_WN.cv.0 routing_WN.cv.0" vType="cv" speedFactor="1.02" vaporized=""/>
    <tripinfo id="SE.0" depart="2.00" departLane="-E3_0" departPos="5.10" departSpeed="18.98" departDelay="0.00" arrival="69.00" arrivalLane="E2_0" arrivalPos="508.36" arrivalSpeed="14.76" duration="67.00" routeLength="1004.51" waitingTime="0.00" waitingCount="0" stopTime="0.00" timeLoss="5.84" rerouteNo="0" devices="tripinfo_SE.0 routing_SE.0" vType="car" speedFactor="0.94" vaporized=""/>
    <tripinfo id="WE.cv.0" depart="4.00" departLane="E0_0" departPos="5.10" departSpeed="16.94" departDelay="0.00" arrival="74.00" arrivalLane="E2_0" arrivalPos="508.36" arrivalSpeed="16.93" duration="70.00" routeLength="1002.59" waitingTime="0.00" waitingCount="0" stopTime="0.00" timeLoss="10.30" rerouteNo="0" devices="tripinfo_WE.cv.0 routing_WE.cv.0" vType="cv" speedFactor="1.08" vaporized=""/>
    <tripinfo id="WE.cv.1" depart="16.00" departLane="E0_0" departPos="5.10" departSpeed="17.18" departDelay="0.00" arrival="77.00" arrivalLane="E2_1" arrivalPos="508.36" arrivalSpeed="17.18" duration="61.00" routeLength="1002.59" waitingTime="0.00" waitingCount="0" stopTime="0.00" timeLoss="2.45" rerouteNo="0" devices="tripinfo_WE.cv.1 routing_WE.cv.1" vType="cv" speedFactor="1.10" vaporized=""/>
    <tripinfo id="NW.0" depart="20.00" departLane="E1_0" departPos="5.10" departSpeed="22.21" departDelay="0.00" arrival="79.00" arrivalLane="-E0_0" arrivalPos="500.03" arrivalSpeed="17.28" duration="59.00" routeLength="993.70" waitingTime="0.00" waitingCount="0" stopTime="0.00" timeLoss="7.19" rerouteNo="0" devices="tripinfo_NW.0 routing_NW.0" vType="car" speedFactor="1.10" vaporized=""/>
    <tripinfo id="WE.0" depart="12.00" departLane="E0_1" departPos="5.10" departSpeed="14.85" departDelay="0.00" arrival="81.00" arrivalLane="E2_0" arrivalPos="508.36" arrivalSpeed="14.85" duration="69.00" routeLength="1002.59" waitingTime="0.00" waitingCount="0" stopTime="0.00" timeLoss="1.16" rerouteNo="0" devices="tripinfo_WE.0 routing_WE.0" vType="car" speedFactor="0.95" vaporized=""/>
    <tripinfo id="EW.1" depart="10.00" departLane="-E2_1" departPos="5.10" departSpeed="17.34" departDelay="0.00" arrival="83.00" arrivalLane="-E0_1" arrivalPos="500.03" arrivalSpeed="17.34" duration="73.00" routeLength="1001.60" waitingTime="3.00" waitingCount="1" stopTime="0.00" timeLoss="14.37" rerouteNo="0" devices="tripinfo_EW.1 routing_EW.1" vType="car" speedFactor="1.11" vaporized=""/>
    <tripinfo id="EW.0" depart="7.00" departLane="-E2_0" departPos="5.10" departSpeed="16.97" departDelay="0.00" arrival="84.00" arrivalLane="-E0_0" arrivalPos="500.03" arrivalSpeed="16.96" duration="77.00" routeLength="1001.60" waitingTime="6.00" waitingCount="1" stopTime="0.00" timeLoss="17.10" rerouteNo="0" devices="tripinfo_EW.0 routing_EW.0" vType="car" speedFactor="1.08" vaporized=""/>
    <tripinfo id="WE.cv.2" depart="23.00" departLane="E0_1" departPos="5.10" departSpeed="16.57" departDelay="0.00" arrival="85.00" arrivalLane="E2_0" arrivalPos="508.36" arrivalSpeed="16.53" duration="62.00" routeLength="1002.59" waitingTime="0.00" waitingCount="0" stopTime="0.00" timeLoss="0.65" rerouteNo="0" devices="tripinfo_WE.cv.2 routing_WE.cv.2" vType="cv" speedFactor="1.06" vaporized=""/>
    <tripinfo id="SE.1" depart="23.00" departLane="-E3_0" departPos="5.10" departSpeed="19.53" departDelay="0.00" arrival="88.00" arrivalLane="E2_0" arrivalPos="508.36" arrivalSpeed="15.16" duration="65.00" routeLength="1004.51" waitingTime="0.00" waitingCount="0" stopTime="0.00" timeLoss="5.89" rerouteNo="0" devices="tripinfo_SE.1 routing_SE.1" vType="car" speedFactor="0.97" vaporized=""/>
    <tripinfo id="ES.cv.0" depart="48.00" departLane="-E2_2" departPos="5.10" departSpeed="15.97" departDelay="0.00" arrival="95.00" arrivalLane="E3_0" arrivalPos="501.31" arrivalSpeed="2.60" duration="47.00" routeLength="1002.88" waitingTime="7.00" waitingCount="1" stopTime="0.00" timeLoss="15.54" rerouteNo="0" devices="tripinfo_ES.cv.0 routing_ES.cv.0" vType="cv" speedFactor="1.02" vaporized="teleport"/>
    <tripinfo id="NS.1" depart="11.00" departLane="E1_1" departPos="5.10" departSpeed="17.72" departDelay="0.00" arrival="99.00" arrivalLane="E3_0" arrivalPos="501.31" arrivalSpeed="17.72" duration="88.00" routeLength="994.98" waitingTime="21.00" waitingCount="1" stopTime="0.00" timeLoss="31.53" rerouteNo="0" devices="tripinfo_NS.1 routing_NS.1" vType="car" speedFactor="0.88" vaporized=""/>
    <tripinfo id="NS.3" depart="20.00" departLane="E1_1" departPos="5.10" departSpeed="20.89" departDelay="0.00" arrival="101.00" arrivalLane="E3_1" arrivalPos="501.31" arrivalSpeed="20.84" duration="81.00" routeLength="994.98" waitingTime="16.00" waitingCount="1" stopTime="0.00" timeLoss="32.87" rerouteNo="0" devices="tripinfo_NS.3 routing_NS.3" vType="car" speedFactor="1.04" vaporized=""/>
    <tripinfo id="WE.cv.3" depart="24.00" departLane="E0_0" departPos="5.10" departSpeed="13.16" departDelay="0.00" arrival="101.00" arrivalLane="E2_0" arrivalPos="508.36" arrivalSpeed="13.16" duration="77.00" routeLength="1002.59" waitingTime="0.00" waitingCount="0" stopTime="0.00" timeLoss="0.23" rerouteNo="0" devices="tripinfo_WE.cv.3 routing_WE.cv.3" vType="cv" speedFactor="0.84" vaporized=""/>
    <tripinfo id="NS.2" depart="12.00" departLane="E1_2" departPos="5.10" departSpeed="16.51" departDelay="0.00" arrival="102.00" arrivalLane="E3_0" arrivalPos="501.31" arrivalSpeed="16.39" duration="90.00" routeLength="994.98" waitingTime="17.00" waitingCount="1" stopTime="0.00" timeLoss="28.80" rerouteNo="0" devices="tripinfo_NS.2 routing_NS.2" vType="car" speedFactor="0.82" vaporized=""/>
    <tripinfo id="NS.4" depart="26.00" departLane="E1_1" departPos="5.10" departSpeed="20.94" departDelay="0.00" arrival="103.00" arrivalLane="E3_1" arrivalPos="501.31" arrivalSpeed="20.39" duration="77.00" routeLength="994.98" waitingTime="12.00" waitingCount="1" stopTime="0.00" timeLoss="29.21" rerouteNo="0" devices="tripinfo_NS.4 routing_NS.4" vType="car" speedFactor="1.04" vaporized=""/>
    <tripinfo id="NS.5" depart="30.00" departLane="E1_1" departPos="5.10" departSpeed="18.83" departDelay="0.00" arrival="103.00" arrivalLane="E3_0" arrivalPos="501.31" arrivalSpeed="16.94" duration="73.00" routeLength="994.98" waitingTime="4.00" waitingCount="1" stopTime="0.00" timeLoss="20.07" rerouteNo="0" devices="tripinfo_NS.5 routing_NS.5" vType="car" speedFactor="0.94" vaporized=""/>
    <tripinfo id="NE.cv.0" depart="31.00" departLane="E1_3" departPos="5.10" departSpeed="19.92" departDelay="0.00" arrival="104.00" arrivalLane="E2_1" arrivalPos="508.36" arrivalSpeed="15.50" duration="73.00" routeLength="1002.03" waitingTime="3.00" waitingCount="1" stopTime="0.00" timeLoss="14.55" rerouteNo="0" devices="tripinfo_NE.cv.0 routing_NE.cv.0" vType="cv" speedFactor="0.99" vaporized=""/>
    <tripinfo id="NS.cv.1" depart="27.00" departLane="E1_2" departPos="5.10" departSpeed="20.23" departDelay="0.00" arrival="105.00" arrivalLane="E3_1" arrivalPos="501.31" arrivalSpeed="19.67" duration="78.00" routeLength="994.98" waitingTime="11.00" waitingCount="1" stopTime="0.00" timeLoss="28.78" rerouteNo="0" devices="tripinfo_NS.cv.1 routing_NS.cv.1" vType="cv" speedFactor="1.01" vaporized=""/>
    <tripinfo id="NS.6" depart="31.00" departLane="E1_1" departPos="5.10" departSpeed="16.42" departDelay="0.00" arrival="105.00" arrivalLane="E3_0" arrivalPos="501.31" arrivalSpeed="19.31" duration="74.00" routeLength="994.98" waitingTime="3.00" waitingCount="1" stopTime="0.00" timeLoss="31.32" rerouteNo="0" devices="tripinfo_NS.6 routing_NS.6" vType="car" speedFactor="1.17" vaporized=""/>
    <tripinfo id="SN.1" depart="26.00" departLane="-E3_2" departPos="5.10" departSpeed="19.86" departDelay="0.00" arrival="106.00" arrivalLane="-E1_0" arrivalPos="498.92" arrivalSpeed="19.86" duration="80.00" routeLength="995.07" waitingTime="18.00" waitingCount="1" stopTime="0.00" timeLoss="29.86" rerouteNo="0" devices="tripinfo_SN.1 routing_SN.1" vType="car" speedFactor="0.99" vaporized=""/>
    <tripinfo id="NW.cv.0" depart="44.00" departLane="E1_0" departPos="5.10" departSpeed="20.54" departDelay="0.00" arrival="106.00" arrivalLane="-E0_0" arrivalPos="500.03" arrivalSpeed="15.97" duration="62.00" routeLength="993.70" waitingTime="0.00" waitingCount="0" stopTime="0.00" timeLoss="6.02" rerouteNo="0" devices="tripinfo_NW.cv.0 routing_NW.cv.0" vType="cv" speedFactor="1.02" vaporized=""/>
    <tripinfo id="WE.cv.4" depart="54.00" departLane="E0_1" departPos="5.10" departSpeed="15.45" departDelay="0.00" arrival="105.00" arrivalLane="E2_0" arrivalPos="508.36" arrivalSpeed="2.60" duration="51.00" routeLength="1002.59" waitingTime="10.00" waitingCount="1" stopTime="0.00" timeLoss="18.91" rerouteNo="0" devices="tripinfo_WE.cv.4 routing_WE.cv.4" vType="cv" speedFactor="0.99" vaporized="teleport"/>
    <tripinfo id="NW.cv.1" depart="74.00" departLane="E1_0" departPos="5.10" departSpeed="20.13" departDelay="0.00" arrival="105.00" arrivalLane="-E0_0" arrivalPos="500.03" arrivalSpeed="3.71" duration="31.00" routeLength="993.70" waitingTime="0.00" waitingCount="0" stopTime="0.00" timeLoss="6.35" rerouteNo="0" devices="tripinfo_NW.cv.1 routing_NW.cv.1" vType="cv" speedFactor="1.00" vaporized="teleport"/>
    <tripinfo id="NS.cv.3" depart="32.00" departLane="E1_2" departPos="5.10" departSpeed="18.77" departDelay="0.00" arrival="107.00" arrivalLane="E3_0" arrivalPos="501.31" arrivalSpeed="19.01" duration="75.00" routeLength="994.98" waitingTime="0.00" waitingCount="0" stopTime="0.00" timeLoss="26.76" rerouteNo="0" devices="tripinfo_NS.cv.3 routing_NS.cv.3" vType="cv" speedFactor="1.04" vaporized=""/>
    <tripinfo id="NS.cv.4" depart="39.00" departLane="E1_1" departPos="5.10" departSpeed="22.13" departDelay="0.00" arrival="107.00" arrivalLane="E3_1" arrivalPos="501.31" arrivalSpeed="20.59" duration="68.00" routeLength="994.98" waitingTime="2.00" waitingCount="1" stopTime="0.00" timeLoss="22.77" rerouteNo="0" devices="tripinfo_NS.cv.4 routing_NS.cv.4" vType="cv" speedFactor="1.10" vaporized=""/>
    <tripinfo id="SN.0" depart="14.00" departLane="-E3_2" departPos="5.10" departSpeed="18.61" departDelay="0.00" arrival="108.00" arrivalLane="-E1_0" arrivalPos="498.92" arrivalSpeed="18.09" duration="94.00" routeLength="995.07" waitingTime="29.00" waitingCount="1" stopTime="0.00" timeLoss="40.14" rerouteNo="0" devices="tripinfo_SN.0 routing_SN.0" vType="car" speedFactor="0.92" vaporized=""/>
    <tripinfo id="NS.cv.2" depart="30.00" departLane="E1_2" departPos="5.10" departSpeed="17.70" departDelay="0.00" arrival="109.00" arrivalLane="E3_0" arrivalPos="501.31" arrivalSpeed="17.35" duration="79.00" routeLength="994.98" waitingTime="7.00" waitingCount="1" stopTime="0.00" timeLoss="22.46" rerouteNo="0" devices="tripinfo_NS.cv.2 routing_NS.cv.2" vType="cv" speedFactor="0.88" vaporized=""/>
    <tripinfo id="SN.cv.3" depart="39.00" departLane="-E3_2" departPos="5.10" departSpeed="21.86" departDelay="0.00" arrival="109.00" arrivalLane="-E1_1" arrivalPos="498.92" arrivalSpeed="21.55" duration="70.00" routeLength="995.07" waitingTime="8.00" waitingCount="1" stopTime="0.00" timeLoss="24.27" rerouteNo="0" devices="tripinfo_SN.cv.3 routing_SN.cv.3" vType="cv" speedFactor="1.09" vaporized=""/>
    <tripinfo id="NS.7" depart="46.00" departLane="E1_1" departPos="5.10" departSpeed="19.76" departDelay="0.00" arrival="109.00" arrivalLane="E3_1" arrivalPos="501.31" arrivalSpeed="19.20" duration="63.00" routeLength="994.98" waitingTime="0.00" waitingCount="0" stopTime="0.00" timeLoss="12.62" rerouteNo="0" devices="tripinfo_NS.7 routing_NS.7" vType="car" speedFactor="0.98" vaporized=""/>
    <tripinfo id="NW.1" depart="45.00" departLane="E1_0" departPos="5.10" departSpeed="17.50" departDelay="0.00" arrival="111.00" arrivalLane="-E0_0" arrivalPos="500.03" arrivalSpeed="15.41" duration="66.00" routeLength="993.70" waitingTime="0.00" waitingCount="0" stopTime="0.00" timeLoss="8.43" rerouteNo="0" devices="tripinfo_NW.1 routing_NW.1" vType="car" speedFactor="0.99" vaporized=""/>
    <tripinfo id="NS.cv.5" depart="52.00" departLane="E1_2" departPos="5.10" departSpeed="20.77" departDelay="0.00" arrival="111.00" arrivalLane="E3_1" arrivalPos="501.31" arrivalSpeed="19.68" duration="59.00" routeLength="994.98" waitingTime="0.00" waitingCount="0" stopTime="0.00" timeLoss="10.95" rerouteNo="0" devices="tripinfo_NS.cv.5 routing_NS.cv.5" vType="cv" speedFactor="1.03" vaporized=""/>
    <tripinfo id="NS.cv.6" depart="53.00" departLane="E1_1" departPos="5.10" departSpeed="23.47" departDelay="0.00" arrival="111.00" arrivalLane="E3_0" arrivalPos="501.31" arrivalSpeed="19.99" duration="58.00" routeLength="994.98" waitingTime="0.00" waitingCount="0" stopTime="0.00" timeLoss="14.91" rerouteNo="0" devices="tripinfo_NS.cv.6 routing_NS.cv.6" vType="cv" speedFactor="1.17" vaporized=""/>
    <tripinfo id="NS.cv.7" depart="57.00" departLane="E1_2" departPos="5.10" departSpeed="23.91" departDelay="0.00" arrival="113.00" arrivalLane="E3_1" arrivalPos="501.31" arrivalSpeed="21.11" duration="56.00" routeLength="994.98" waitingTime="0.00" waitingCount="0" stopTime="0.00" timeLoss="13.89" rerouteNo="0" devices="tripinfo_NS.cv.7 routing_NS.cv.7" vType="cv" speedFactor="1.19" vaporized=""/>
    <tripinfo id="SN.cv.4" depart="60.00" departLane="-E3_2" departPos="5.10" departSpeed="19.99" departDelay="0.00" arrival="113.00" arrivalLane="-E1_0" arrivalPos="498.92" arrivalSpeed="19.96" duration="53.00" routeLength="995.07" waitingTime="0.00" waitingCount="0" stopTime="0.00" timeLoss="2.79" rerouteNo="0" devices="tripinfo_SN.cv.4 routing_SN.cv.4" vType="cv" speedFactor="0.99" vaporized=""/>
    <tripinfo id="NS.cv.8" depart="64.00" departLane="E1_2" departPos="5.10" departSpeed="23.54" departDelay="0.00" arrival="115.00" arrivalLane="E3_1" arrivalPos="501.31" arrivalSpeed="21.27" duration="51.00" routeLength="994.98" waitingTime="0.00" waitingCount="0" stopTime="0.00" timeLoss="7.95" rerouteNo="0" devices="tripinfo_NS.cv.8 routing_NS.cv.8" vType="cv" speedFactor="1.17" vaporized=""/>
    <tripinfo id="SN.2" depart="37.00" departLane="-E3_1" departPos="5.10" departSpeed="15.12" departDelay="0.00" arrival="116.00" arrivalLane="-E1_0" arrivalPos="498.92" arrivalSpeed="15.10" duration="79.00" routeLength="995.07" waitingTime="1.00" waitingCount="1" stopTime="0.00" timeLoss="12.52" rerouteNo="0" devices="tripinfo_SN.2 routing_SN.2" vType="car" speedFactor="0.75" vaporized=""/>
    <tripinfo id="NS.8" depart="63.00" departLane="E1_1" departPos="5.10" departSpeed="18.80" departDelay="0.00" arrival="118.00" arrivalLane="E3_0" arrivalPos="501.31" arrivalSpeed="18.78" duration="55.00" routeLength="994.98" waitingTime="0.00" waitingCount="0" stopTime="0.00" timeLoss="1.65" rerouteNo="0" devices="tripinfo_NS.8 routing_NS.8" vType="car" speedFactor="0.93" vaporized=""/>
    <tripinfo id="NW.2" depart="52.00" departLane="E1_0" departPos="5.10" departSpeed="17.88" departDelay="0.00" arrival="121.00" arrivalLane="-E0_0" arrivalPos="500.03" arrivalSpeed="13.91" duration="69.00" routeLength="993.70" waitingTime="0.00" waitingCount="0" stopTime="0.00" timeLoss="5.16" rerouteNo="0" devices="tripinfo_NW.2 routing_NW.2" vType="car" speedFactor="0.89" vaporized=""/>
    <tripinfo id="ES.cv.1" depart="58.00" departLane="-E2_3" departPos="5.10" departSpeed="16.79" departDelay="0.00" arrival="122.00" arrivalLane="E3_1" arrivalPos="501.31" arrivalSpeed="21.58" duration="64.00" routeLength="1002.88" waitingTime="0.00" waitingCount="0" stopTime="0.00" timeLoss="10.34" rerouteNo="0" devices="tripinfo_ES.cv.1 routing_ES.cv.1" vType="cv" speedFactor="1.07" vaporized=""/>
    <tripinfo id="WN.cv.2" depart="33.00" departLane="E0_3" departPos="5.10" departSpeed="15.84" departDelay="0.00" arrival="123.00" arrivalLane="-E1_1" arrivalPos="498.92" arrivalSpeed="20.37" duration="90.00" routeLength="993.15" waitingTime="22.00" waitingCount="1" stopTime="0.00" timeLoss="33.79" rerouteNo="0" devices="tripinfo_WN.cv.2 routing_WN.cv.2" vType="cv" speedFactor="1.01" vaporized=""/>
    <tripinfo id="WS.cv.0" depart="45.00" departLane="E0_0" departPos="5.10" departSpeed="14.76" departDelay="0.00" arrival="125.00" arrivalLane="E3_0" arrivalPos="501.31" arrivalSpeed="18.97" duration="80.00" routeLength="995.54" waitingTime="8.00" waitingCount="1" stopTime="0.00" timeLoss="19.25" rerouteNo="0" devices="tripinfo_WS.cv.0 routing_WS.cv.0" vType="cv" speedFactor="0.94" vaporized=""/>
    <tripinfo id="ES.0" depart="64.00" departLane="-E2_2" departPos="5.10" departSpeed="15.29" departDelay="0.00" arrival="126.00" arrivalLane="E3_1" arrivalPos="501.31" arrivalSpeed="19.63" duration="62.00" routeLength="1002.88" waitingTime="0.00" waitingCount="0" stopTime="0.00" timeLoss="3.43" rerouteNo="0" devices="tripinfo_ES.0 routing_ES.0" vType="car" speedFactor="0.98" vaporized=""/>
    <tripinfo id="WN.cv.1" depart="8.00" departLane="E0_3" departPos="5.10" departSpeed="13.05" departDelay="0.00" arrival="127.00" arrivalLane="-E1_0" arrivalPos="498.92" arrivalSpeed="16.77" duration="119.00" routeLength="993.15" waitingTime="41.00" waitingCount="1" stopTime="0.00" timeLoss="51.37" rerouteNo="0" devices="tripinfo_WN.cv.1 routing_WN.cv.1" vType="cv" speedFactor="0.83" vaporized=""/>
    <tripinfo id="WS.cv.1" depart="49.00" departLane="E0_0" departPos="5.10" departSpeed="17.36" departDelay="0.00" arrival="127.00" arrivalLane="E3_0" arrivalPos="501.31" arrivalSpeed="20.54" duration="78.00" routeLength="995.54" waitingTime="8.00" waitingCount="1" stopTime="0.00" timeLoss="26.32" rerouteNo="0" devices="tripinfo_WS.cv.1 routing_WS.cv.1" vType="cv" speedFactor="1.11" vaporized=""/>
    <tripinfo id="SE.cv.0" depart="59.00" departLane="-E3_0" departPos="5.10" departSpeed="19.03" departDelay="0.00" arrival="132.00" arrivalLane="E2_0" arrivalPos="508.36" arrivalSpeed="14.80" duration="73.00" routeLength="1004.51" waitingTime="1.00" waitingCount="1" stopTime="0.00" timeLoss="11.66" rerouteNo="0" devices="tripinfo_SE.cv.0 routing_SE.cv.0" vType="cv" speedFactor="0.95" vaporized=""/>
    <tripinfo id="EW.cv.0" depart="33.00" departLane="-E2_1" departPos="5.10" departSpeed="16.10" departDelay="0.00" arrival="139.00" arrivalLane="-E0_0" arrivalPos="500.03" arrivalSpeed="16.10" duration="106.00" routeLength="1001.60" waitingTime="33.00" waitingCount="1" stopTime="0.00" timeLoss="42.89" rerouteNo="0" devices="tripinfo_EW.cv.0 routing_EW.cv.0" vType="cv" speedFactor="1.03" vaporized=""/>
    <tripinfo id="SE.2" depart="71.00" departLane="-E3_0" departPos="5.10" departSpeed="18.84" departDelay="0.00" arrival="142.00" arrivalLane="E2_0" arrivalPos="508.36" arrivalSpeed="14.65" duration="71.00" routeLength="1004.51" waitingTime="0.00" waitingCount="0" stopTime="0.00" timeLoss="9.30" rerouteNo="0" devices="tripinfo_SE.2 routing_SE.2" vType="car" speedFactor="0.94" vaporized=""/>
    <tripinfo id="EN.cv.0" depart="82.00" departLane="-E2_0" departPos="5.10" departSpeed="16.72" departDelay="0.00" arrival="142.00" arrivalLane="-E1_0" arrivalPos="498.92" arrivalSpeed="21.49" duration="60.00" routeLength="1000.49" waitingTime="0.00" waitingCount="0" stopTime="0.00" timeLoss="6.23" rerouteNo="0" devices="tripinfo_EN.cv.0 routing_EN.cv.0" vType="cv" speedFactor="1.07" vaporized=""/>
    <tripinfo id="EW.cv.2" depart="65.00" departLane="-E2_1" departPos="5.10" departSpeed="15.45" departDelay="0.00" arrival="143.00" arrivalLane="-E0_1" arrivalPos="500.03" arrivalSpeed="15.45" duration="78.00" routeLength="1001.60" waitingTime="1.00" waitingCount="1" stopTime="0.00" timeLoss="12.32" rerouteNo="0" devices="tripinfo_EW.cv.2 routing_EW.cv.2" vType="cv" speedFactor="0.99" vaporized=""/>
    <tripinfo id="EW.cv.1" depart="52.00" departLane="-E2_0" departPos="5.10" departSpeed="13.71" departDelay="0.00" arrival="144.00" arrivalLane="-E0_0" arrivalPos="500.03" arrivalSpeed="13.71" duration="92.00" routeLength="1001.60" waitingTime="8.00" waitingCount="1" stopTime="0.00" timeLoss="18.60" rerouteNo="0" devices="tripinfo_EW.cv.1 routing_EW.cv.1" vType="cv" speedFactor="0.88" vaporized=""/>
    <tripinfo id="EW.2" depart="80.00" departLane="-E2_1" departPos="5.10" departSpeed="15.58" departDelay="0.00" arrival="147.00" arrivalLane="-E0_1" arrivalPos="500.03" arrivalSpeed="15.55" duration="67.00" routeLength="1001.60" waitingTime="0.00" waitingCount="0" stopTime="0.00" timeLoss="1.87" rerouteNo="0" devices="tripinfo_EW.2 routing_EW.2" vType="car" speedFactor="1.00" vaporized=""/>
    <tripinfo id="SW.cv.0" depart="61.00" departLane="-E3_3" departPos="5.10" departSpeed="23.03" departDelay="0.00" arrival="155.00" arrivalLane="-E0_0" arrivalPos="500.03" arrivalSpeed="17.91" duration="94.00" routeLength="996.18" waitingTime="32.00" waitingCount="1" stopTime="0.00" timeLoss="43.93" rerouteNo="0" devices="tripinfo_SW.cv.0 routing_SW.cv.0" vType="cv" speedFactor="1.14" vaporized=""/>
    <tripinfo id="NE.cv.1" depart="59.00" departLane="E1_3" departPos="5.10" departSpeed="20.44" departDelay="0.00" arrival="158.00" arrivalLane="E2_0" arrivalPos="508.36" arrivalSpeed="15.90" duration="99.00" routeLength="1002.03" waitingTime="31.00" waitingCount="1" stopTime="0.00" timeLoss="42.84" rerouteNo="0" devices="tripinfo_NE.cv.1 routing_NE.cv.1" vType="cv" speedFactor="1.02" vaporized=""/>
    <tripinfo id="SN.cv.6" depart="69.00" departLane="-E3_2" departPos="5.10" departSpeed="24.06" departDelay="0.00" arrival="159.00" arrivalLane="-E1_0" arrivalPos="498.92" arrivalSpeed="24.06" duration="90.00" routeLength="995.07" waitingTime="32.00" waitingCount="1" stopTime="0.00" timeLoss="48.12" rerouteNo="0" devices="tripinfo_SN.cv.6 routing_SN.cv.6" vType="cv" speedFactor="1.20" vaporized=""/>
    <tripinfo id="SW.cv.1" depart="66.00" departLane="-E3_3" departPos="5.10" departSpeed="20.03" departDelay="0.00" arrival="161.00" arrivalLane="-E0_0" arrivalPos="500.03" arrivalSpeed="15.58" duration="95.00" routeLength="996.18" waitingTime="25.00" waitingCount="1" stopTime="0.00" timeLoss="37.69" rerouteNo="0" devices="tripinfo_SW.cv.1 routing_SW.cv.1" vType="cv" speedFactor="1.00" vaporized=""/>
    <tripinfo id="SN.cv.5" depart="67.00" departLane="-E3_1" departPos="5.10" departSpeed="18.41" departDelay="0.00" arrival="164.00" arrivalLane="-E1_0" arrivalPos="498.92" arrivalSpeed="18.41" duration="97.00" routeLength="995.07" waitingTime="31.00" waitingCount="1" stopTime="0.00" timeLoss="42.81" rerouteNo="0" devices="tripinfo_SN.cv.5 routing_SN.cv.5" vType="cv" speedFactor="0.92" vaporized=""/>
    <tripinfo id="SN.3" depart="70.00" departLane="-E3_1" departPos="5.10" departSpeed="20.69" departDelay="0.00" arrival="164.00" arrivalLane="-E1_1" arrivalPos="498.92" arrivalSpeed="20.69" duration="94.00" routeLength="995.07" waitingTime="31.00" waitingCount="1" stopTime="0.00" timeLoss="45.33" rerouteNo="0" devices="tripinfo_SN.3 routing_SN.3" vType="car" speedFactor="1.03" vaporized=""/>
    <tripinfo id="SW.cv.2" depart="83.00" departLane="-E3_3" departPos="5.10" departSpeed="20.45" departDelay="0.00" arrival="164.00" arrivalLane="-E0_0" arrivalPos="500.03" arrivalSpeed="15.80" duration="81.00" routeLength="996.18" waitingTime="10.00" waitingCount="1" stopTime="0.00" timeLoss="24.66" rerouteNo="0" devices="tripinfo_SW.cv.2 routing_SW.cv.2" vType="cv" speedFactor="1.02" vaporized=""/>
    <tripinfo id="SW.cv.3" depart="84.00" departLane="-E3_3" departPos="5.10" departSpeed="18.02" departDelay="0.00" arrival="164.00" arrivalLane="-E0_1" arrivalPos="500.03" arrivalSpeed="17.23" duration="80.00" routeLength="996.18" waitingTime="10.00" waitingCount="1" stopTime="0.00" timeLoss="27.94" rerouteNo="0" devices="tripinfo_SW.cv.3 routing_SW.cv.3" vType="cv" speedFactor="1.10" vaporized=""/>
    <tripinfo id="SN.5" depart="83.00" departLane="-E3_1" departPos="5.10" departSpeed="20.85" departDelay="0.00" arrival="166.00" arrivalLane="-E1_0" arrivalPos="498.92" arrivalSpeed="19.89" duration="83.00" routeLength="995.07" waitingTime="16.00" waitingCount="1" stopTime="0.00" timeLoss="35.11" rerouteNo="0" devices="tripinfo_SN.5 routing_SN.5" vType="car" speedFactor="1.04" vaporized=""/>
    <tripinfo id="NS.cv.10" depart="70.00" departLane="E1_2" departPos="5.10" departSpeed="23.21" departDelay="0.00" arrival="167.00" arrivalLane="E3_0" arrivalPos="501.31" arrivalSpeed="23.21" duration="97.00" routeLength="994.98" waitingTime="40.00" waitingCount="1" stopTime="0.00" timeLoss="53.30" rerouteNo="0" devices="tripinfo_NS.cv.10 routing_NS.cv.10" vType="cv" speedFactor="1.15" vaporized=""/>
    <tripinfo id="SN.cv.7" depart="75.00" departLane="-E3_2" departPos="5.10" departSpeed="21.37" departDelay="0.00" arrival="167.00" arrivalLane="-E1_1" arrivalPos="498.92" arrivalSpeed="21.11" duration="92.00" routeLength="995.07" waitingTime="29.00" waitingCount="1" stopTime="0.00" timeLoss="44.49" rerouteNo="0" devices="tripinfo_SN.cv.7 routing_SN.cv.7" vType="cv" speedFactor="1.06" vaporized=""/>
    <tripinfo id="SN.4" depart="79.00" departLane="-E3_1" departPos="5.10" departSpeed="20.28" departDelay="0.00" arrival="169.00" arrivalLane="-E1_1" arrivalPos="498.92" arrivalSpeed="20.03" duration="90.00" routeLength="995.07" waitingTime="26.00" waitingCount="1" stopTime="0.00" timeLoss="40.93" rerouteNo="0" devices="tripinfo_SN.4 routing_SN.4" vType="car" speedFactor="1.01" vaporized=""/>
    <tripinfo id="SN.7" depart="86.00" departLane="-E3_1" departPos="5.10" departSpeed="18.93" departDelay="0.00" arrival="169.00" arrivalLane="-E1_0" arrivalPos="498.92" arrivalSpeed="18.78" duration="83.00" routeLength="995.07" waitingTime="15.00" waitingCount="1" stopTime="0.00" timeLoss="30.11" rerouteNo="0" devices="tripinfo_SN.7 routing_SN.7" vType="car" speedFactor="0.94" vaporized=""/>
    <tripinfo id="SW.0" depart="102.00" departLane="-E3_3" departPos="5.10" departSpeed="19.68" departDelay="0.00" arrival="169.00" arrivalLane="-E0_0" arrivalPos="500.03" arrivalSpeed="15.30" duration="67.00" routeLength="996.18" waitingTime="0.00" waitingCount="0" stopTime="0.00" timeLoss="8.25" rerouteNo="0" devices="tripinfo_SW.0 routing_SW.0" vType="car" speedFactor="0.98" vaporized=""/>