<?xml version="1.0" encoding="UTF-8"?>

<!-- generated on 2023-01-30 12:01:31 by Eclipse SUMO sumo Version 1.13.0
<configuration xmlns:xsi="http://www.w3.org/2001/XMLSchema-instance" xsi:noNamespaceSchemaLocation="http://sumo.dlr.de/xsd/sumoConfiguration.xsd">

    <input>
        <net-file value="data/Eastway-Central.net.xml"/>
        <route-files value="data/cav60-offpeak.rou.xml"/>
        <additional-files value="data/Eastway-Central.add.xml"/>
    </input>

    <output>
        <tripinfo-output value="result\2023-01-30-11-54-29\45_tripinfo.xml"/>
    </output>

    <report>
        <no-warnings value="true"/>
        <no-step-log value="true"/>
    </report>

    <traci_server>
        <remote-port value="53868"/>
    </traci_server>

    <random_number>
        <seed value="44"/>
    </random_number>

</configuration>
-->

<tripinfos xmlns:xsi="http://www.w3.org/2001/XMLSchema-instance" xsi:noNamespaceSchemaLocation="http://sumo.dlr.de/xsd/tripinfo_file.xsd">
    <tripinfo id="NS.cv.0" depart="0.00" departLane="E1_1" departPos="5.10" departSpeed="22.55" departDelay="0.00" arrival="50.00" arrivalLane="E3_0" arrivalPos="501.31" arrivalSpeed="20.12" duration="50.00" routeLength="994.98" waitingTime="0.00" waitingCount="0" stopTime="0.00" timeLoss="5.46" rerouteNo="0" devices="tripinfo_NS.cv.0 routing_NS.cv.0" vType="cv" speedFactor="1.12" vaporized=""/>
    <tripinfo id="BNS.0" depart="0.00" departLane="E1_2" departPos="12.10" departSpeed="20.12" departDelay="0.00" arrival="50.00" arrivalLane="E3_1" arrivalPos="501.31" arrivalSpeed="20.12" duration="50.00" routeLength="987.98" waitingTime="0.00" waitingCount="0" stopTime="0.00" timeLoss="0.19" rerouteNo="0" devices="tripinfo_BNS.0 routing_BNS.0" vType="bus" speedFactor="1.00" vaporized=""/>
    <tripinfo id="SN.cv.0" depart="6.00" departLane="-E3_1" departPos="5.10" departSpeed="21.43" departDelay="0.00" arrival="53.00" arrivalLane="-E1_0" arrivalPos="498.92" arrivalSpeed="21.43" duration="47.00" routeLength="995.07" waitingTime="0.00" waitingCount="0" stopTime="0.00" timeLoss="0.03" rerouteNo="0" devices="tripinfo_SN.cv.0 routing_SN.cv.0" vType="cv" speedFactor="1.07" vaporized=""/>
    <tripinfo id="SW.cv.0" depart="1.00" departLane="-E3_3" departPos="5.10" departSpeed="22.87" departDelay="0.00" arrival="64.00" arrivalLane="-E0_0" arrivalPos="500.03" arrivalSpeed="17.79" duration="63.00" routeLength="996.18" waitingTime="0.00" waitingCount="0" stopTime="0.00" timeLoss="12.66" rerouteNo="0" devices="tripinfo_SW.cv.0 routing_SW.cv.0" vType="cv" speedFactor="1.14" vaporized=""/>
    <tripinfo id="SN.cv.1" depart="9.00" departLane="-E3_2" departPos="5.10" departSpeed="18.77" departDelay="0.00" arrival="64.00" arrivalLane="-E1_0" arrivalPos="498.92" arrivalSpeed="18.77" duration="55.00" routeLength="995.07" waitingTime="0.00" waitingCount="0" stopTime="0.00" timeLoss="1.06" rerouteNo="0" devices="tripinfo_SN.cv.1 routing_SN.cv.1" vType="cv" speedFactor="0.93" vaporized=""/>
    <tripinfo id="SW.0" depart="8.00" departLane="-E3_3" departPos="5.10" departSpeed="18.21" departDelay="0.00" arrival="73.00" arrivalLane="-E0_0" arrivalPos="500.03" arrivalSpeed="14.16" duration="65.00" routeLength="996.18" waitingTime="0.00" waitingCount="0" stopTime="0.00" timeLoss="1.79" rerouteNo="0" devices="tripinfo_SW.0 routing_SW.0" vType="car" speedFactor="0.91" vaporized=""/>
    <tripinfo id="SW.1" depart="9.00" departLane="-E3_3" departPos="5.10" departSpeed="15.67" departDelay="0.00" arrival="73.00" arrivalLane="-E0_1" arrivalPos="500.03" arrivalSpeed="15.68" duration="64.00" routeLength="996.18" waitingTime="0.00" waitingCount="0" stopTime="0.00" timeLoss="6.40" rerouteNo="0" devices="tripinfo_SW.1 routing_SW.1" vType="car" speedFactor="1.00" vaporized=""/>
    <tripinfo id="WS.0" depart="5.00" departLane="E0_0" departPos="5.10" departSpeed="14.16" departDelay="0.00" arrival="74.00" arrivalLane="E3_0" arrivalPos="501.31" arrivalSpeed="18.20" duration="69.00" routeLength="995.54" waitingTime="0.00" waitingCount="0" stopTime="0.00" timeLoss="5.89" rerouteNo="0" devices="tripinfo_WS.0 routing_WS.0" vType="car" speedFactor="0.90" vaporized=""/>
    <tripinfo id="SW.cv.1" depart="10.00" departLane="-E3_3" departPos="5.10" departSpeed="11.61" departDelay="0.00" arrival="75.00" arrivalLane="-E0_1" arrivalPos="500.03" arrivalSpeed="16.03" duration="65.00" routeLength="996.18" waitingTime="0.00" waitingCount="0" stopTime="0.00" timeLoss="10.27" rerouteNo="0" devices="tripinfo_SW.cv.1 routing_SW.cv.1" vType="cv" speedFactor="1.04" vaporized=""/>
    <tripinfo id="NS.cv.1" depart="10.00" departLane="E1_2" departPos="5.10" departSpeed="21.47" departDelay="0.00" arrival="76.00" arrivalLane="E3_0" arrivalPos="501.31" arrivalSpeed="19.71" duration="66.00" routeLength="994.98" waitingTime="5.00" waitingCount="1" stopTime="0.00" timeLoss="19.20" rerouteNo="0" devices="tripinfo_NS.cv.1 routing_NS.cv.1" vType="cv" speedFactor="1.07" vaporized=""/>
    <tripinfo id="NS.cv.2" depart="13.00" departLane="E1_1" departPos="5.10" departSpeed="19.71" departDelay="0.00" arrival="76.00" arrivalLane="E3_1" arrivalPos="501.31" arrivalSpeed="19.71" duration="63.00" routeLength="994.98" waitingTime="0.00" waitingCount="0" stopTime="0.00" timeLoss="11.71" rerouteNo="0" devices="tripinfo_NS.cv.2 routing_NS.cv.2" vType="cv" speedFactor="0.98" vaporized=""/>
    <tripinfo id="NS.cv.4" depart="15.00" departLane="E1_1" departPos="5.10" departSpeed="22.21" departDelay="0.00" arrival="78.00" arrivalLane="E3_1" arrivalPos="501.31" arrivalSpeed="21.18" duration="63.00" routeLength="994.98" waitingTime="0.00" waitingCount="0" stopTime="0.00" timeLoss="17.46" rerouteNo="0" devices="tripinfo_NS.cv.4 routing_NS.cv.4" vType="cv" speedFactor="1.10" vaporized=""/>
    <tripinfo id="SN.cv.2" depart="27.00" departLane="-E3_2" departPos="5.10" departSpeed="19.23" departDelay="0.00" arrival="79.00" arrivalLane="-E1_0" arrivalPos="498.92" arrivalSpeed="19.23" duration="52.00" routeLength="995.07" waitingTime="0.00" waitingCount="0" stopTime="0.00" timeLoss="0.03" rerouteNo="0" devices="tripinfo_SN.cv.2 routing_SN.cv.2" vType="cv" speedFactor="0.96" vaporized=""/>
    <tripinfo id="NS.0" depart="16.00" departLane="E1_2" departPos="5.10" departSpeed="16.83" departDelay="0.00" arrival="80.00" arrivalLane="E3_1" arrivalPos="501.31" arrivalSpeed="20.02" duration="64.00" routeLength="994.98" waitingTime="0.00" waitingCount="0" stopTime="0.00" timeLoss="15.10" rerouteNo="0" devices="tripinfo_NS.0 routing_NS.0" vType="car" speedFactor="1.01" vaporized=""/>
    <tripinfo id="NS.cv.5" depart="20.00" departLane="E1_1" departPos="5.10" departSpeed="19.35" departDelay="0.00" arrival="83.00" arrivalLane="E3_1" arrivalPos="501.31" arrivalSpeed="19.22" duration="63.00" routeLength="994.98" waitingTime="0.00" waitingCount="0" stopTime="0.00" timeLoss="11.54" rerouteNo="0" devices="tripinfo_NS.cv.5 routing_NS.cv.5" vType="cv" speedFactor="0.96" vaporized=""/>
    <tripinfo id="NS.cv.3" depart="14.00" departLane="E1_2" departPos="5.10" departSpeed="15.14" departDelay="0.00" arrival="85.00" arrivalLane="E3_0" arrivalPos="501.31" arrivalSpeed="15.14" duration="71.00" routeLength="994.98" waitingTime="0.00" waitingCount="0" stopTime="0.00" timeLoss="4.34" rerouteNo="0" devices="tripinfo_NS.cv.3 routing_NS.cv.3" vType="cv" speedFactor="0.75" vaporized=""/>
    <tripinfo id="SN.cv.3" depart="33.00" departLane="-E3_1" departPos="5.10" departSpeed="18.87" departDelay="0.00" arrival="86.00" arrivalLane="-E1_0" arrivalPos="498.92" arrivalSpeed="18.87" duration="53.00" routeLength="995.07" waitingTime="0.00" waitingCount="0" stopTime="0.00" timeLoss="0.26" rerouteNo="0" devices="tripinfo_SN.cv.3 routing_SN.cv.3" vType="cv" speedFactor="0.94" vaporized=""/>
    <tripinfo id="NW.cv.0" depart="22.00" departLane="E1_0" departPos="5.10" departSpeed="19.86" departDelay="0.00" arrival="87.00" arrivalLane="-E0_0" arrivalPos="500.03" arrivalSpeed="15.45" duration="65.00" routeLength="993.70" waitingTime="0.00" waitingCount="0" stopTime="0.00" timeLoss="7.38" rerouteNo="0" devices="tripinfo_NW.cv.0 routing_NW.cv.0" vType="cv" speedFactor="0.99" vaporized=""/>
    <tripinfo id="ES.cv.0" depart="5.00" departLane="-E2_2" departPos="5.10" departSpeed="14.88" departDelay="0.00" arrival="93.00" arrivalLane="E3_0" arrivalPos="501.31" arrivalSpeed="19.13" duration="88.00" routeLength="1002.88" waitingTime="17.00" waitingCount="1" stopTime="0.00" timeLoss="28.07" rerouteNo="0" devices="tripinfo_ES.cv.0 routing_ES.cv.0" vType="cv" speedFactor="0.95" vaporized=""/>
    <tripinfo id="ES.cv.1" depart="29.00" departLane="-E2_3" departPos="5.10" departSpeed="15.30" departDelay="0.00" arrival="96.00" arrivalLane="E3_1" arrivalPos="501.31" arrivalSpeed="19.67" duration="67.00" routeLength="1002.88" waitingTime="0.00" waitingCount="0" stopTime="0.00" timeLoss="8.00" rerouteNo="0" devices="tripinfo_ES.cv.1 routing_ES.cv.1" vType="cv" speedFactor="0.98" vaporized=""/>
    <tripinfo id="ES.0" depart="17.00" departLane="-E2_3" departPos="5.10" departSpeed="13.33" departDelay="0.00" arrival="97.00" arrivalLane="E3_0" arrivalPos="501.31" arrivalSpeed="17.11" duration="80.00" routeLength="1002.88" waitingTime="1.00" waitingCount="1" stopTime="0.00" timeLoss="12.29" rerouteNo="0" devices="tripinfo_ES.0 routing_ES.0" vType="car" speedFactor="0.85" vaporized=""/>
    <tripinfo id="EW.0" depart="48.00" departLane="-E2_1" departPos="5.10" departSpeed="20.20" departDelay="0.00" arrival="98.00" arrivalLane="-E0_0" arrivalPos="500.03" arrivalSpeed="20.20" duration="50.00" routeLength="1001.60" waitingTime="0.00" waitingCount="0" stopTime="0.00" timeLoss="0.26" rerouteNo="0" devices="tripinfo_EW.0 routing_EW.0" vType="car" speedFactor="1.29" vaporized=""/>
    <tripinfo id="EW.cv.0" depart="14.00" departLane="-E2_0" departPos="5.10" departSpeed="14.84" departDelay="0.00" arrival="100.00" arrivalLane="-E0_0" arrivalPos="500.03" arrivalSpeed="14.74" duration="86.00" routeLength="1001.60" waitingTime="8.00" waitingCount="1" stopTime="0.00" timeLoss="18.10" rerouteNo="0" devices="tripinfo_EW.cv.0 routing_EW.cv.0" vType="cv" speedFactor="0.95" vaporized=""/>
    <tripinfo id="WS.cv.0" depart="31.00" departLane="E0_0" departPos="5.10" departSpeed="17.07" departDelay="0.00" arrival="104.00" arrivalLane="E3_1" arrivalPos="501.31" arrivalSpeed="21.94" duration="73.00" routeLength="995.54" waitingTime="8.00" waitingCount="1" stopTime="0.00" timeLoss="20.60" rerouteNo="0" devices="tripinfo_WS.cv.0 routing_WS.cv.0" vType="cv" speedFactor="1.09" vaporized=""/>
    <tripinfo id="NW.0" depart="41.00" departLane="E1_0" departPos="5.10" departSpeed="22.28" departDelay="0.00" arrival="107.00" arrivalLane="-E0_0" arrivalPos="500.03" arrivalSpeed="17.33" duration="66.00" routeLength="993.70" waitingTime="0.00" waitingCount="0" stopTime="0.00" timeLoss="14.13" rerouteNo="0" devices="tripinfo_NW.0 routing_NW.0" vType="car" speedFactor="1.11" vaporized=""/>
    <tripinfo id="WE.0" depart="14.00" departLane="E0_1" departPos="5.10" departSpeed="16.59" departDelay="0.00" arrival="108.00" arrivalLane="E2_0" arrivalPos="508.36" arrivalSpeed="16.59" duration="94.00" routeLength="1002.59" waitingTime="22.00" waitingCount="1" stopTime="0.00" timeLoss="33.36" rerouteNo="0" devices="tripinfo_WE.0 routing_WE.0" vType="car" speedFactor="1.06" vaporized=""/>
    <tripinfo id="SE.0" depart="53.00" departLane="-E3_0" departPos="5.10" departSpeed="23.22" departDelay="0.00" arrival="110.00" arrivalLane="E2_1" arrivalPos="508.36" arrivalSpeed="18.06" duration="57.00" routeLength="1004.51" waitingTime="0.00" waitingCount="0" stopTime="0.00" timeLoss="7.30" rerouteNo="0" devices="tripinfo_SE.0 routing_SE.0" vType="car" speedFactor="1.15" vaporized=""/>
    <tripinfo id="NW.cv.1" depart="42.00" departLane="E1_0" departPos="5.10" departSpeed="18.62" departDelay="0.00" arrival="114.00" arrivalLane="-E0_0" arrivalPos="500.03" arrivalSpeed="14.48" duration="72.00" routeLength="993.70" waitingTime="0.00" waitingCount="0" stopTime="0.00" timeLoss="10.64" rerouteNo="0" devices="tripinfo_NW.cv.1 routing_NW.cv.1" vType="cv" speedFactor="0.93" vaporized=""/>
    <tripinfo id="WS.cv.1" depart="48.00" departLane="E0_0" departPos="5.10" departSpeed="14.66" departDelay="0.00" arrival="115.00" arrivalLane="E3_0" arrivalPos="501.31" arrivalSpeed="18.85" duration="67.00" routeLength="995.54" waitingTime="0.00" waitingCount="0" stopTime="0.00" timeLoss="6.23" rerouteNo="0" devices="tripinfo_WS.cv.1 routing_WS.cv.1" vType="cv" speedFactor="0.94" vaporized=""/>
    <tripinfo id="SN.cv.4" depart="56.00" departLane="-E3_2" departPos="5.10" departSpeed="21.90" departDelay="0.00" arrival="121.00" arrivalLane="-E1_0" arrivalPos="498.92" arrivalSpeed="21.90" duration="65.00" routeLength="995.07" waitingTime="5.00" waitingCount="1" stopTime="0.00" timeLoss="18.63" rerouteNo="0" devices="tripinfo_SN.cv.4 routing_SN.cv.4" vType="cv" speedFactor="1.09" vaporized=""/>
    <tripinfo id="SN.cv.5" depart="59.00" departLane="-E3_1" departPos="5.10" departSpeed="20.02" departDelay="0.00" arrival="122.00" arrivalLane="-E1_1" arrivalPos="498.92" arrivalSpeed="20.02" duration="63.00" routeLength="995.07" waitingTime="1.00" waitingCount="1" stopTime="0.00" timeLoss="13.06" rerouteNo="0" devices="tripinfo_SN.cv.5 routing_SN.cv.5" vType="cv" speedFactor="0.99" vaporized=""/>
    <tripinfo id="SW.cv.2" depart="22.00" departLane="-E3_3" departPos="5.10" departSpeed="21.52" departDelay="0.00" arrival="127.00" arrivalLane="-E0_0" arrivalPos="500.03" arrivalSpeed="16.74" duration="105.00" routeLength="996.18" waitingTime="39.00" waitingCount="1" stopTime="0.00" timeLoss="51.12" rerouteNo="0" devices="tripinfo_SW.cv.2 routing_SW.cv.2" vType="cv" speedFactor="1.07" vaporized=""/>
    <tripinfo id="SW.2" depart="27.00" departLane="-E3_3" departPos="5.10" departSpeed="21.31" departDelay="0.00" arrival="130.00" arrivalLane="-E0_1" arrivalPos="500.03" arrivalSpeed="16.58" duration="103.00" routeLength="996.18" waitingTime="36.00" waitingCount="1" stopTime="0.00" timeLoss="48.94" rerouteNo="0" devices="tripinfo_SW.2 routing_SW.2" vType="car" speedFactor="1.06" vaporized=""/>
    <tripinfo id="NW.cv.2" depart="62.00" departLane="E1_0" departPos="5.10" departSpeed="19.16" departDelay="0.00" arrival="130.00" arrivalLane="-E0_0" arrivalPos="500.03" arrivalSpeed="14.87" duration="68.00" routeLength="993.70" waitingTime="0.00" waitingCount="0" stopTime="0.00" timeLoss="7.92" rerouteNo="0" devices="tripinfo_NW.cv.2 routing_NW.cv.2" vType="cv" speedFactor="0.95" vaporized=""/>
    <tripinfo id="SW.3" depart="28.00" departLane="-E3_3" departPos="5.10" departSpeed="18.71" departDelay="0.00" arrival="132.00" arrivalLane="-E0_1" arrivalPos="500.03" arrivalSpeed="16.91" duration="104.00" routeLength="996.18" waitingTime="35.00" waitingCount="1" stopTime="0.00" timeLoss="52.53" rerouteNo="0" devices="tripinfo_SW.3 routing_SW.3" vType="car" speedFactor="1.10" vaporized=""/>
    <tripinfo id="NS.cv.7" depart="39.00" departLane="E1_2" departPos="5.10" departSpeed="19.65" departDelay="0.00" arrival="138.00" arrivalLane="E3_0" arrivalPos="501.31" arrivalSpeed="19.65" duration="99.00" routeLength="994.98" waitingTime="35.00" waitingCount="1" stopTime="0.00" timeLoss="47.68" rerouteNo="0" devices="tripinfo_NS.cv.7 routing_NS.cv.7" vType="cv" speedFactor="0.98" vaporized=""/>
    <tripinfo id="SW.4" depart="66.00" departLane="-E3_3" departPos="5.10" departSpeed="17.59" departDelay="0.00" arrival="139.00" arrivalLane="-E0_0" arrivalPos="500.03" arrivalSpeed="13.68" duration="73.00" routeLength="996.18" waitingTime="0.00" waitingCount="0" stopTime="0.00" timeLoss="8.02" rerouteNo="0" devices="tripinfo_SW.4 routing_SW.4" vType="car" speedFactor="0.87" vaporized=""/>
    <tripinfo id="SN.cv.6" depart="90.00" departLane="-E3_1" departPos="5.10" departSpeed="20.81" departDelay="0.00" arrival="139.00" arrivalLane="-E1_0" arrivalPos="498.92" arrivalSpeed="20.81" duration="49.00" routeLength="995.07" waitingTime="0.00" waitingCount="0" stopTime="0.00" timeLoss="0.60" rerouteNo="0" devices="tripinfo_SN.cv.6 routing_SN.cv.6" vType="cv" speedFactor="1.03" vaporized=""/>
    <tripinfo id="NS.1" depart="34.00" departLane="E1_1" departPos="5.10" departSpeed="18.18" departDelay="0.00" arrival="140.00" arrivalLane="E3_0" arrivalPos="501.31" arrivalSpeed="17.90" duration="106.00" routeLength="994.98" waitingTime="39.00" waitingCount="1" stopTime="0.00" timeLoss="50.86" rerouteNo="0" devices="tripinfo_NS.1 routing_NS.1" vType="car" speedFactor="0.90" vaporized=""/>
    <tripinfo id="NS.cv.8" depart="55.00" departLane="E1_2" departPos="5.10" departSpeed="21.38" departDelay="0.00" arrival="140.00" arrivalLane="E3_1" arrivalPos="501.31" arrivalSpeed="21.36" duration="85.00" routeLength="994.98" waitingTime="23.00" waitingCount="1" stopTime="0.00" timeLoss="37.51" rerouteNo="0" devices="tripinfo_NS.cv.8 routing_NS.cv.8" vType="cv" speedFactor="1.06" vaporized=""/>
    <tripinfo id="SE.cv.0" depart="64.00" departLane="-E3_0" departPos="5.10" departSpeed="16.17" departDelay="0.00" arrival="141.00" arrivalLane="E2_0" arrivalPos="508.36" arrivalSpeed="12.58" duration="77.00" routeLength="1004.51" waitingTime="0.00" waitingCount="0" stopTime="0.00" timeLoss="4.89" rerouteNo="0" devices="tripinfo_SE.cv.0 routing_SE.cv.0" vType="cv" speedFactor="0.80" vaporized=""/>
    <tripinfo id="NS.cv.6" depart="37.00" departLane="E1_1" departPos="5.10" departSpeed="17.89" departDelay="0.00" arrival="143.00" arrivalLane="E3_0" arrivalPos="501.31" arrivalSpeed="17.77" duration="106.00" routeLength="994.98" waitingTime="37.00" waitingCount="1" stopTime="0.00" timeLoss="50.09" rerouteNo="0" devices="tripinfo_NS.cv.6 routing_NS.cv.6" vType="cv" speedFactor="0.89" vaporized=""/>
    <tripinfo id="NS.cv.9" depart="58.00" departLane="E1_2" departPos="5.10" departSpeed="20.44" departDelay="0.00" arrival="143.00" arrivalLane="E3_1" arrivalPos="501.31" arrivalSpeed="20.31" duration="85.00" routeLength="994.98" waitingTime="20.00" waitingCount="1" stopTime="0.00" timeLoss="35.36" rerouteNo="0" devices="tripinfo_NS.cv.9 routing_NS.cv.9" vType="cv" speedFactor="1.02" vaporized=""/>
    <tripinfo id="NS.2" depart="55.00" departLane="E1_1" departPos="5.10" departSpeed="20.99" departDelay="0.00" arrival="145.00" arrivalLane="E3_0" arrivalPos="501.31" arrivalSpeed="19.49" duration="90.00" routeLength="994.98" waitingTime="24.00" waitingCount="1" stopTime="0.00" timeLoss="42.10" rerouteNo="0" devices="tripinfo_NS.2 routing_NS.2" vType="car" speedFactor="1.04" vaporized=""/>
    <tripinfo id="NS.cv.10" depart="61.00" departLane="E1_1" departPos="5.10" departSpeed="19.79" departDelay="0.00" arrival="145.00" arrivalLane="E3_1" arrivalPos="501.31" arrivalSpeed="19.53" duration="84.00" routeLength="994.98" waitingTime="18.00" waitingCount="1" stopTime="0.00" timeLoss="33.61" rerouteNo="0" devices="tripinfo_NS.cv.10 routing_NS.cv.10" vType="cv" speedFactor="0.98" vaporized=""/>
    <tripinfo id="NW.1" depart="85.00" departLane="E1_0" departPos="5.10" departSpeed="21.44" departDelay="0.00" arrival="146.00" arrivalLane="-E0_0" arrivalPos="500.03" arrivalSpeed="16.68" duration="61.00" routeLength="993.70" waitingTime="0.00" waitingCount="0" stopTime="0.00" timeLoss="7.38" rerouteNo="0" devices="tripinfo_NW.1 routing_NW.1" vType="car" speedFactor="1.07" vaporized=""/>
    <tripinfo id="NS.3" depart="65.00" departLane="E1_1" departPos="5.10" departSpeed="20.46" departDelay="0.00" arrival="147.00" arrivalLane="E3_0" arrivalPos="501.31" arrivalSpeed="19.36" duration="82.00" routeLength="994.98" waitingTime="11.00" waitingCount="1" stopTime="0.00" timeLoss="32.79" rerouteNo="0" devices="tripinfo_NS.3 routing_NS.3" vType="car" speedFactor="1.02" vaporized=""/>
    <tripinfo id="NS.cv.13" depart="73.00" departLane="E1_1" departPos="5.10" departSpeed="22.77" departDelay="0.00" arrival="149.00" arrivalLane="E3_0" arrivalPos="501.31" arrivalSpeed="20.49" duration="76.00" routeLength="994.98" waitingTime="3.00" waitingCount="1" stopTime="0.00" timeLoss="31.45" rerouteNo="0" devices="tripinfo_NS.cv.13 routing_NS.cv.13" vType="cv" speedFactor="1.13" vaporized=""/>
    <tripinfo id="NS.cv.11" depart="64.00" departLane="E1_2" departPos="5.10" departSpeed="17.07" departDelay="0.00" arrival="150.00" arrivalLane="E3_1" arrivalPos="501.31" arrivalSpeed="17.06" duration="86.00" routeLength="994.98" waitingTime="13.00" waitingCount="1" stopTime="0.00" timeLoss="27.26" rerouteNo="0" devices="tripinfo_NS.cv.11 routing_NS.cv.11" vType="cv" speedFactor="0.85" vaporized=""/>
    <tripinfo id="NS.4" depart="90.00" departLane="E1_1" departPos="5.10" departSpeed="19.57" departDelay="0.00" arrival="151.00" arrivalLane="E3_0" arrivalPos="501.31" arrivalSpeed="18.01" duration="61.00" routeLength="994.98" waitingTime="0.00" waitingCount="0" stopTime="0.00" timeLoss="10.08" rerouteNo="0" devices="tripinfo_NS.4 routing_NS.4" vType="car" speedFactor="0.97" vaporized=""/>
    <tripinfo id="NS.cv.12" depart="71.00" departLane="E1_2" departPos="5.10" departSpeed="22.49" departDelay="0.00" arrival="152.00" arrivalLane="E3_1" arrivalPos="501.31" arrivalSpeed="19.86" duration="81.00" routeLength="994.98" waitingTime="13.00" waitingCount="1" stopTime="0.00" timeLoss="35.99" rerouteNo="0" devices="tripinfo_NS.cv.12 routing_NS.cv.12" vType="cv" speedFactor="1.12" vaporized=""/>
    <tripinfo id="NS.cv.14" depart="76.00" departLane="E1_2" departPos="5.10" departSpeed="21.88" departDelay="0.00" arrival="153.00" arrivalLane="E3_1" arrivalPos="501.31" arrivalSpeed="18.94" duration="77.00" routeLength="994.98" waitingTime="7.00" waitingCount="1" stopTime="0.00" timeLoss="31.40" rerouteNo="0" devices="tripinfo_NS.cv.14 routing_NS.cv.14" vType="cv" speedFactor="1.09" vaporized=""/>
    <tripinfo id="SN.cv.7" depart="100.00" departLane="-E3_1" departPos="5.10" departSpeed="18.64" departDelay="0.00" arrival="154.00" arrivalLane="-E1_0" arrivalPos="498.92" arrivalSpeed="18.64" duration="54.00" routeLength="995.07" waitingTime="0.00" waitingCount="0" stopTime="0.00" timeLoss="0.03" rerouteNo="0" devices="tripinfo_SN.cv.7 routing_SN.cv.7" vType="cv" speedFactor="0.93" vaporized=""/>
    <tripinfo id="NS.cv.15" depart="84.00" departLane="E1_1" departPos="5.10" departSpeed="22.43" departDelay="0.00" arrival="155.00" arrivalLane="E3_1" arrivalPos="501.31" arrivalSpeed="19.95" duration="71.00" routeLength="994.98" waitingTime="3.00" waitingCount="1" stopTime="0.00" timeLoss="26.18" rerouteNo="0" devices="tripinfo_NS.cv.15 routing_NS.cv.15" vType="cv" speedFactor="1.11" vaporized=""/>
    <tripinfo id="NS.cv.16" depart="90.00" departLane="E1_2" departPos="5.10" departSpeed="20.03" departDelay="0.00" arrival="156.00" arrivalLane="E3_0" arrivalPos="501.31" arrivalSpeed="19.30" duration="66.00" routeLength="994.98" waitingTime="0.00" waitingCount="0" stopTime="0.00" timeLoss="15.63" rerouteNo="0" devices="tripinfo_NS.cv.16 routing_NS.cv.16" vType="cv" speedFactor="1.00" vaporized=""/>
    <tripinfo id="NS.5" depart="92.00" departLane="E1_2" departPos="5.10" departSpeed="19.39" departDelay="0.00" arrival="157.00" arrivalLane="E3_1" arrivalPos="501.31" arrivalSpeed="18.70" duration="65.00" routeLength="994.98" waitingTime="0.00" waitingCount="0" stopTime="0.00" timeLoss="13.32" rerouteNo="0" devices="tripinfo_NS.5 routing_NS.5" vType="car" speedFactor="0.96" vaporized=""/>
    <tripinfo id="NS.cv.17" depart="100.00" departLane="E1_1" departPos="5.10" departSpeed="18.61" departDelay="0.00" arrival="159.00" arrivalLane="E3_0" arrivalPos="501.31" arrivalSpeed="18.40" duration="59.00" routeLength="994.98" waitingTime="0.00" waitingCount="0" stopTime="0.00" timeLoss="5.43" rerouteNo="0" devices="tripinfo_NS.cv.17 routing_NS.cv.17" vType="cv" speedFactor="0.93" vaporized=""/>
    <tripinfo id="NS.cv.18" depart="105.00" departLane="E1_2" departPos="5.10" departSpeed="20.45" departDelay="0.00" arrival="160.00" arrivalLane="E3_1" arrivalPos="501.31" arrivalSpeed="20.04" duration="55.00" routeLength="994.98" waitingTime="0.00" waitingCount="0" stopTime="0.00" timeLoss="5.40" rerouteNo="0" devices="tripinfo_NS.cv.18 routing_NS.cv.18" vType="cv" speedFactor="1.02" vaporized=""/>
    <tripinfo id="SN.cv.8" depart="110.00" departLane="-E3_2" departPos="5.10" departSpeed="20.31" departDelay="0.00" arrival="160.00" arrivalLane="-E1_0" arrivalPos="498.92" arrivalSpeed="20.30" duration="50.00" routeLength="995.07" waitingTime="0.00" waitingCount="0" stopTime="0.00" timeLoss="0.45" rerouteNo="0" devices="tripinfo_SN.cv.8 routing_SN.cv.8" vType="cv" speedFactor="1.01" vaporized=""/>
    <tripinfo id="SE.cv.1" depart="97.00" departLane="-E3_0" departPos="5.10" departSpeed="20.09" departDelay="0.00" arrival="161.00" arrivalLane="E2_0" arrivalPos="508.36" arrivalSpeed="15.63" duration="64.00" routeLength="1004.51" waitingTime="0.00" waitingCount="0" stopTime="0.00" timeLoss="6.56" rerouteNo="0" devices="tripinfo_SE.cv.1 routing_SE.cv.1" vType="cv" speedFactor="1.00" vaporized=""/>
    <tripinfo id="ES.1" depart="55.00" departLane="-E2_3" departPos="5.10" departSpeed="17.35" departDelay="0.00" arrival="166.00" arrivalLane="E3_1" arrivalPos="501.31" arrivalSpeed="22.29" duration="111.00" routeLength="1002.88" waitingTime="46.00" waitingCount="1" stopTime="0.00" timeLoss="58.69" rerouteNo="0" devices="tripinfo_ES.1 routing_ES.1" vType="car" speedFactor="1.11" vaporized=""/>
    <tripinfo id="ES.cv.3" depart="65.00" departLane="-E2_3" departPos="5.10" departSpeed="15.44" departDelay="0.00" arrival="168.00" arrivalLane="E3_1" arrivalPos="501.31" arrivalSpeed="19.68" duration="103.00" routeLength="1002.88" waitingTime="33.00" waitingCount="1" stopTime="0.00" timeLoss="44.99" rerouteNo="0" devices="tripinfo_ES.cv.3 routing_ES.cv.3" vType="cv" speedFactor="0.99" vaporized=""/>
    <tripinfo id="ES.cv.4" depart="74.00" departLane="-E2_2" departPos="5.10" departSpeed="16.00" departDelay="0.00" arrival="171.00" arrivalLane="E3_1" arrivalPos="501.31" arrivalSpeed="20.26" duration="97.00" routeLength="1002.88" waitingTime="26.00" waitingCount="1" stopTime="0.00" timeLoss="40.43" rerouteNo="0" devices="tripinfo_ES.cv.4 routing_ES.cv.4" vType="cv" speedFactor="1.02" vaporized=""/>
    <tripinfo id="ES.cv.2" depart="62.00" departLane="-E2_2" departPos="5.10" departSpeed="14.08" departDelay="0.00" arrival="172.00" arrivalLane="E3_0" arrivalPos="501.31" arrivalSpeed="18.10" duration="110.00" routeLength="1002.88" waitingTime="35.00" waitingCount="1" stopTime="0.00" timeLoss="46.26" rerouteNo="0" devices="tripinfo_ES.cv.2 routing_ES.cv.2" vType="cv" speedFactor="0.90" vaporized=""/>
    <tripinfo id="EW.cv.1" depart="93.00" departLane="-E2_0" departPos="5.10" departSpeed="15.05" departDelay="0.00" arrival="175.00" arrivalLane="-E0_0" arrivalPos="500.03" arrivalSpeed="15.05" duration="82.00" routeLength="1001.60" waitingTime="4.00" waitingCount="1" stopTime="0.00" timeLoss="14.49" rerouteNo="0" devices="tripinfo_EW.cv.1 routing_EW.cv.1" vType="cv" speedFactor="0.96" vaporized=""/>
    <tripinfo id="SE.cv.2" depart="108.00" departLane="-E3_0" departPos="5.10" departSpeed="18.89" departDelay="0.00" arrival="175.00" arrivalLane="E2_0" arrivalPos="508.36" arrivalSpeed="14.70" duration="67.00" routeLength="1004.51" waitingTime="0.00" waitingCount="0" stopTime="0.00" timeLoss="5.77" rerouteNo="0" devices="tripinfo_SE.cv.2 routing_SE.cv.2" vType="cv" speedFactor="0.94" vaporized=""/>
    <tripinfo id="WS.cv.2" depart="73.00" departLane="E0_0" departPos="5.10" departSpeed="14.71" departDelay="0.00" arrival="182.00" arrivalLane="E3_0" arrivalPos="501.31" arrivalSpeed="18.92" duration="109.00" routeLength="995.54" waitingTime="36.00" waitingCount="1" stopTime="0.00" timeLoss="48.34" rerouteNo="0" devices="tripinfo_WS.cv.2 routing_WS.cv.2" vType="cv" speedFactor="0.94" vaporized=""/>
    <tripinfo id="EW.cv.2" depart="121.00" departLane="-E2_1" departPos="5.10" departSpeed="16.71" departDelay="0.00" arrival="182.00" arrivalLane="-E0_0" arrivalPos="500.03" arrivalSpeed="16.71" duration="61.00" routeLength="1001.60" waitingTime="0.00" waitingCount="0" stopTime="0.00" timeLoss="0.20" rerouteNo="0" devices="tripinfo_EW.cv.2 routing_EW.cv.2" vType="cv" speedFactor="1.07" vaporized=""/>
    <tripinfo id="WS.1" depart="105.00" departLane="E0_0" departPos="5.10" departSpeed="19.58" departDelay="0.00" arrival="183.00" arrivalLane="E3_1" arrivalPos="501.31" arrivalSpeed="25.17" duration="78.00" routeLength="995.54" waitingTime="15.00" waitingCount="1" stopTime="0.00" timeLoss="31.94" rerouteNo="0" devices="tripinfo_WS.1 routing_WS.1" vType="car" speedFactor="1.25" vaporized=""/>
    <tripinfo id="WE.1" depart="58.00" departLane="E0_1" departPos="5.10" departSpeed="15.98" departDelay="0.00" arrival="184.00" arrivalLane="E2_0" arrivalPos="508.36" arrivalSpeed="15.98" duration="126.00" routeLength="1002.59" waitingTime="53.00" waitingCount="1" stopTime="0.00" timeLoss="63.18" rerouteNo="0" devices="tripinfo_WE.1 routing_WE.1" vType="car" speedFactor="1.02" vaporized=""/>
    <tripinfo id="NW.cv.3" depart="119.00" departLane="E1_0" departPos="5.10" departSpeed="19.49" departDelay="0.00" arrival="185.00" arrivalLane="-E0_0" arrivalPos="500.03" arrivalSpeed="15.12" duration="66.00" routeLength="993.70" waitingTime="0.00" waitingCount="0" stopTime="0.00" timeLoss="7.27" rerouteNo="0" devices="tripinfo_NW.cv.3 routing_NW.cv.3" vType="cv" speedFactor="0.97" vaporized=""/>
    <tripinfo id="WE.2" depart="86.00" departLane="E0_1" departPos="5.10" departSpeed="16.95" departDelay="0.00" arrival="188.00" arrivalLane="E2_1" arrivalPos="508.36" arrivalSpeed="16.95" duration="102.00" routeLength="1002.59" waitingTime="27.00" waitingCount="1" stopTime="0.00" timeLoss="42.20" rerouteNo="0" devices="tripinfo_WE.2 routing_WE.2" vType="car" speedFactor="1.08" vaporized=""/>